ITEM: TIMESTEP
0
ITEM: NUMBER OF ATOMS
416
ITEM: BOX BOUNDS pp pp pp
0.0000000000000000e+00 3.2200000000000003e+01
0.0000000000000000e+00 3.4399999999999999e+01
-6.8000000000000000e+01 6.8000000000000000e+01
ITEM: ATOMS id type q xs ys zs
2529 5 -0.03 0.0381912 0.0309593 0.903493
2530 5 -0.03 0.114574 0.0309593 0.903493
2531 5 -0.03 0.0763824 0.0103198 0.903493
2532 5 -0.03 0.190956 0.0309593 0.903493
2533 5 -0.03 0.152765 0.0103198 0.903493
2534 5 -0.03 0.267338 0.0309593 0.903493
2535 5 -0.03 0.229147 0.0103198 0.903493
2537 5 -0.03 0.305529 0.0103198 0.903493
2555 5 -0.03 0.0763824 0.0928779 0.903493
2556 5 -0.03 0.0381912 0.0722384 0.903493
2557 5 -0.03 0.152765 0.0928779 0.903493
2558 5 -0.03 0.114574 0.0722384 0.903493
2559 5 -0.03 0.229147 0.0928779 0.903493
2560 5 -0.03 0.190956 0.0722384 0.903493
2561 5 -0.03 0.305529 0.0928779 0.903493
2562 5 -0.03 0.267338 0.0722384 0.903493
2581 5 -0.03 0.0381912 0.154797 0.903493
2582 5 -0.03 0.114574 0.154797 0.903493
2583 5 -0.03 0.0763824 0.134157 0.903493
2584 5 -0.03 0.190956 0.154797 0.903493
2585 5 -0.03 0.152765 0.134157 0.903493
2586 5 -0.03 0.267338 0.154797 0.903493
2587 5 -0.03 0.229147 0.134157 0.903493
2589 5 -0.03 0.305529 0.134157 0.903493
2607 5 -0.03 0.0763824 0.216715 0.903493
2608 5 -0.03 0.0381912 0.196076 0.903493
2609 5 -0.03 0.152765 0.216715 0.903493
2610 5 -0.03 0.114574 0.196076 0.903493
2611 5 -0.03 0.229147 0.216715 0.903493
2612 5 -0.03 0.190956 0.196076 0.903493
2613 5 -0.03 0.305529 0.216715 0.903493
2614 5 -0.03 0.267338 0.196076 0.903493
2633 5 -0.03 0.0381912 0.278634 0.903493
2634 5 -0.03 0.114574 0.278634 0.903493
2635 5 -0.03 0.0763824 0.257994 0.903493
2636 5 -0.03 0.190956 0.278634 0.903493
2637 5 -0.03 0.152765 0.257994 0.903493
2638 5 -0.03 0.267338 0.278634 0.903493
2639 5 -0.03 0.229147 0.257994 0.903493
2641 5 -0.03 0.305529 0.257994 0.903493
2660 5 -0.03 0.0381912 0.319913 0.903493
2662 5 -0.03 0.114574 0.319913 0.903493
2664 5 -0.03 0.190956 0.319913 0.903493
2666 5 -0.03 0.267338 0.319913 0.903493
2536 5 -0.03 0.343721 0.0309593 0.903493
2538 5 -0.03 0.420103 0.0309593 0.903493
2539 5 -0.03 0.381912 0.0103198 0.903493
2540 5 -0.03 0.496485 0.0309593 0.903493
2541 5 -0.03 0.458294 0.0103198 0.903493
2542 5 -0.03 0.572868 0.0309593 0.903493
2543 5 -0.03 0.534677 0.0103198 0.903493
2544 5 -0.03 0.64925 0.0309593 0.903493
2545 5 -0.03 0.611059 0.0103198 0.903493
2563 5 -0.03 0.381912 0.0928779 0.903493
2564 5 -0.03 0.343721 0.0722384 0.903493
2565 5 -0.03 0.458294 0.0928779 0.903493
2566 5 -0.03 0.420103 0.0722384 0.903493
2567 5 -0.03 0.534677 0.0928779 0.903493
2568 5 -0.03 0.496485 0.0722384 0.903493
2569 5 -0.03 0.611059 0.0928779 0.903493
2570 5 -0.03 0.572868 0.0722384 0.903493
2572 5 -0.03 0.64925 0.0722384 0.903493
2588 5 -0.03 0.343721 0.154797 0.903493
2590 5 -0.03 0.420103 0.154797 0.903493
2591 5 -0.03 0.381912 0.134157 0.903493
2592 5 -0.03 0.496485 0.154797 0.903493
2593 5 -0.03 0.458294 0.134157 0.903493
2594 5 -0.03 0.572868 0.154797 0.903493
2595 5 -0.03 0.534677 0.134157 0.903493
2596 5 -0.03 0.64925 0.154797 0.903493
2597 5 -0.03 0.611059 0.134157 0.903493
2615 5 -0.03 0.381912 0.216715 0.903493
2616 5 -0.03 0.343721 0.196076 0.903493
2617 5 -0.03 0.458294 0.216715 0.903493
2618 5 -0.03 0.420103 0.196076 0.903493
2619 5 -0.03 0.534677 0.216715 0.903493
2620 5 -0.03 0.496485 0.196076 0.903493
2621 5 -0.03 0.611059 0.216715 0.903493
2622 5 -0.03 0.572868 0.196076 0.903493
2624 5 -0.03 0.64925 0.196076 0.903493
2640 5 -0.03 0.343721 0.278634 0.903493
2642 5 -0.03 0.420103 0.278634 0.903493
2643 5 -0.03 0.381912 0.257994 0.903493
2644 5 -0.03 0.496485 0.278634 0.903493
2645 5 -0.03 0.458294 0.257994 0.903493
2646 5 -0.03 0.572868 0.278634 0.903493
2647 5 -0.03 0.534677 0.257994 0.903493
2648 5 -0.03 0.64925 0.278634 0.903493
2649 5 -0.03 0.611059 0.257994 0.903493
2668 5 -0.03 0.343721 0.319913 0.903493
2670 5 -0.03 0.420103 0.319913 0.903493
2672 5 -0.03 0.496485 0.319913 0.903493
2674 5 -0.03 0.572868 0.319913 0.903493
2676 5 -0.03 0.64925 0.319913 0.903493
2546 5 -0.03 0.725632 0.0309593 0.903493
2547 5 -0.03 0.687441 0.0103198 0.903493
2548 5 -0.03 0.802015 0.0309593 0.903493
2549 5 -0.03 0.763824 0.0103198 0.903493
2550 5 -0.03 0.878397 0.0309593 0.903493
2551 5 -0.03 0.840206 0.0103198 0.903493
2552 5 -0.03 0.95478 0.0309593 0.903493
2553 5 -0.03 0.916588 0.0103198 0.903493
2554 5 -0.03 0.992971 0.0103198 0.903493
2571 5 -0.03 0.687441 0.0928779 0.903493
2573 5 -0.03 0.763824 0.0928779 0.903493
2574 5 -0.03 0.725632 0.0722384 0.903493
2575 5 -0.03 0.840206 0.0928779 0.903493
2576 5 -0.03 0.802015 0.0722384 0.903493
2577 5 -0.03 0.916588 0.0928779 0.903493
2578 5 -0.03 0.878397 0.0722384 0.903493
2579 5 -0.03 0.992971 0.0928779 0.903493
2580 5 -0.03 0.95478 0.0722384 0.903493
2598 5 -0.03 0.725632 0.154797 0.903493
2599 5 -0.03 0.687441 0.134157 0.903493
2600 5 -0.03 0.802015 0.154797 0.903493
2601 5 -0.03 0.763824 0.134157 0.903493
2602 5 -0.03 0.878397 0.154797 0.903493
2603 5 -0.03 0.840206 0.134157 0.903493
2604 5 -0.03 0.95478 0.154797 0.903493
2605 5 -0.03 0.916588 0.134157 0.903493
2606 5 -0.03 0.992971 0.134157 0.903493
2623 5 -0.03 0.687441 0.216715 0.903493
2625 5 -0.03 0.763824 0.216715 0.903493
2626 5 -0.03 0.725632 0.196076 0.903493
2627 5 -0.03 0.840206 0.216715 0.903493
2628 5 -0.03 0.802015 0.196076 0.903493
2629 5 -0.03 0.916588 0.216715 0.903493
2630 5 -0.03 0.878397 0.196076 0.903493
2631 5 -0.03 0.992971 0.216715 0.903493
2632 5 -0.03 0.95478 0.196076 0.903493
2650 5 -0.03 0.725632 0.278634 0.903493
2651 5 -0.03 0.687441 0.257994 0.903493
2652 5 -0.03 0.802015 0.278634 0.903493
2653 5 -0.03 0.763824 0.257994 0.903493
2654 5 -0.03 0.878397 0.278634 0.903493
2655 5 -0.03 0.840206 0.257994 0.903493
2656 5 -0.03 0.95478 0.278634 0.903493
2657 5 -0.03 0.916588 0.257994 0.903493
2658 5 -0.03 0.992971 0.257994 0.903493
2678 5 -0.03 0.725632 0.319913 0.903493
2680 5 -0.03 0.802015 0.319913 0.903493
2682 5 -0.03 0.878397 0.319913 0.903493
2684 5 -0.03 0.95478 0.319913 0.903493
2659 5 -0.03 0.0763824 0.340552 0.903493
2661 5 -0.03 0.152765 0.340552 0.903493
2663 5 -0.03 0.229147 0.340552 0.903493
2665 5 -0.03 0.305529 0.340552 0.903493
2685 5 -0.03 0.0381912 0.402471 0.903493
2686 5 -0.03 0.114574 0.402471 0.903493
2687 5 -0.03 0.0763824 0.381831 0.903493
2688 5 -0.03 0.190956 0.402471 0.903493
2689 5 -0.03 0.152765 0.381831 0.903493
2690 5 -0.03 0.267338 0.402471 0.903493
2691 5 -0.03 0.229147 0.381831 0.903493
2693 5 -0.03 0.305529 0.381831 0.903493
2711 5 -0.03 0.0763824 0.46439 0.903493
2712 5 -0.03 0.0381912 0.44375 0.903493
2713 5 -0.03 0.152765 0.46439 0.903493
2714 5 -0.03 0.114574 0.44375 0.903493
2715 5 -0.03 0.229147 0.46439 0.903493
2716 5 -0.03 0.190956 0.44375 0.903493
2717 5 -0.03 0.305529 0.46439 0.903493
2718 5 -0.03 0.267338 0.44375 0.903493
2737 5 -0.03 0.0381912 0.526308 0.903493
2738 5 -0.03 0.114574 0.526308 0.903493
2739 5 -0.03 0.0763824 0.505669 0.903493
2740 5 -0.03 0.190956 0.526308 0.903493
2741 5 -0.03 0.152765 0.505669 0.903493
2742 5 -0.03 0.267338 0.526308 0.903493
2743 5 -0.03 0.229147 0.505669 0.903493
2745 5 -0.03 0.305529 0.505669 0.903493
2763 5 -0.03 0.0763824 0.588227 0.903493
2764 5 -0.03 0.0381912 0.567587 0.903493
2765 5 -0.03 0.152765 0.588227 0.903493
2766 5 -0.03 0.114574 0.567587 0.903493
2767 5 -0.03 0.229147 0.588227 0.903493
2768 5 -0.03 0.190956 0.567587 0.903493
2769 5 -0.03 0.305529 0.588227 0.903493
2770 5 -0.03 0.267338 0.567587 0.903493
2789 5 -0.03 0.0381912 0.650145 0.903493
2790 5 -0.03 0.114574 0.650145 0.903493
2791 5 -0.03 0.0763824 0.629506 0.903493
2792 5 -0.03 0.190956 0.650145 0.903493
2793 5 -0.03 0.152765 0.629506 0.903493
2794 5 -0.03 0.267338 0.650145 0.903493
2795 5 -0.03 0.229147 0.629506 0.903493
2797 5 -0.03 0.305529 0.629506 0.903493
2667 5 -0.03 0.381912 0.340552 0.903493
2669 5 -0.03 0.458294 0.340552 0.903493
2671 5 -0.03 0.534677 0.340552 0.903493
2673 5 -0.03 0.611059 0.340552 0.903493
2692 5 -0.03 0.343721 0.402471 0.903493
2694 5 -0.03 0.420103 0.402471 0.903493
2695 5 -0.03 0.381912 0.381831 0.903493
2696 5 -0.03 0.496485 0.402471 0.903493
2697 5 -0.03 0.458294 0.381831 0.903493
2698 5 -0.03 0.572868 0.402471 0.903493
2699 5 -0.03 0.534677 0.381831 0.903493
2700 5 -0.03 0.64925 0.402471 0.903493
2701 5 -0.03 0.611059 0.381831 0.903493
2719 5 -0.03 0.381912 0.46439 0.903493
2720 5 -0.03 0.343721 0.44375 0.903493
2721 5 -0.03 0.458294 0.46439 0.903493
2722 5 -0.03 0.420103 0.44375 0.903493
2723 5 -0.03 0.534677 0.46439 0.903493
2724 5 -0.03 0.496485 0.44375 0.903493
2725 5 -0.03 0.611059 0.46439 0.903493
2726 5 -0.03 0.572868 0.44375 0.903493
2728 5 -0.03 0.64925 0.44375 0.903493
2744 5 -0.03 0.343721 0.526308 0.903493
2746 5 -0.03 0.420103 0.526308 0.903493
2747 5 -0.03 0.381912 0.505669 0.903493
2748 5 -0.03 0.496485 0.526308 0.903493
2749 5 -0.03 0.458294 0.505669 0.903493
2750 5 -0.03 0.572868 0.526308 0.903493
2751 5 -0.03 0.534677 0.505669 0.903493
2752 5 -0.03 0.64925 0.526308 0.903493
2753 5 -0.03 0.611059 0.505669 0.903493
2771 5 -0.03 0.381912 0.588227 0.903493
2772 5 -0.03 0.343721 0.567587 0.903493
2773 5 -0.03 0.458294 0.588227 0.903493
2774 5 -0.03 0.420103 0.567587 0.903493
2775 5 -0.03 0.534677 0.588227 0.903493
2776 5 -0.03 0.496485 0.567587 0.903493
2777 5 -0.03 0.611059 0.588227 0.903493
2778 5 -0.03 0.572868 0.567587 0.903493
2780 5 -0.03 0.64925 0.567587 0.903493
2796 5 -0.03 0.343721 0.650145 0.903493
2798 5 -0.03 0.420103 0.650145 0.903493
2799 5 -0.03 0.381912 0.629506 0.903493
2800 5 -0.03 0.496485 0.650145 0.903493
2801 5 -0.03 0.458294 0.629506 0.903493
2802 5 -0.03 0.572868 0.650145 0.903493
2803 5 -0.03 0.534677 0.629506 0.903493
2804 5 -0.03 0.64925 0.650145 0.903493
2805 5 -0.03 0.611059 0.629506 0.903493
2675 5 -0.03 0.687441 0.340552 0.903493
2677 5 -0.03 0.763824 0.340552 0.903493
2679 5 -0.03 0.840206 0.340552 0.903493
2681 5 -0.03 0.916588 0.340552 0.903493
2683 5 -0.03 0.992971 0.340552 0.903493
2702 5 -0.03 0.725632 0.402471 0.903493
2703 5 -0.03 0.687441 0.381831 0.903493
2704 5 -0.03 0.802015 0.402471 0.903493
2705 5 -0.03 0.763824 0.381831 0.903493
2706 5 -0.03 0.878397 0.402471 0.903493
2707 5 -0.03 0.840206 0.381831 0.903493
2708 5 -0.03 0.95478 0.402471 0.903493
2709 5 -0.03 0.916588 0.381831 0.903493
2710 5 -0.03 0.992971 0.381831 0.903493
2727 5 -0.03 0.687441 0.46439 0.903493
2729 5 -0.03 0.763824 0.46439 0.903493
2730 5 -0.03 0.725632 0.44375 0.903493
2731 5 -0.03 0.840206 0.46439 0.903493
2732 5 -0.03 0.802015 0.44375 0.903493
2733 5 -0.03 0.916588 0.46439 0.903493
2734 5 -0.03 0.878397 0.44375 0.903493
2735 5 -0.03 0.992971 0.46439 0.903493
2736 5 -0.03 0.95478 0.44375 0.903493
2754 5 -0.03 0.725632 0.526308 0.903493
2755 5 -0.03 0.687441 0.505669 0.903493
2756 5 -0.03 0.802015 0.526308 0.903493
2757 5 -0.03 0.763824 0.505669 0.903493
2758 5 -0.03 0.878397 0.526308 0.903493
2759 5 -0.03 0.840206 0.505669 0.903493
2760 5 -0.03 0.95478 0.526308 0.903493
2761 5 -0.03 0.916588 0.505669 0.903493
2762 5 -0.03 0.992971 0.505669 0.903493
2779 5 -0.03 0.687441 0.588227 0.903493
2781 5 -0.03 0.763824 0.588227 0.903493
2782 5 -0.03 0.725632 0.567587 0.903493
2783 5 -0.03 0.840206 0.588227 0.903493
2784 5 -0.03 0.802015 0.567587 0.903493
2785 5 -0.03 0.916588 0.588227 0.903493
2786 5 -0.03 0.878397 0.567587 0.903493
2787 5 -0.03 0.992971 0.588227 0.903493
2788 5 -0.03 0.95478 0.567587 0.903493
2806 5 -0.03 0.725632 0.650145 0.903493
2807 5 -0.03 0.687441 0.629506 0.903493
2808 5 -0.03 0.802015 0.650145 0.903493
2809 5 -0.03 0.763824 0.629506 0.903493
2810 5 -0.03 0.878397 0.650145 0.903493
2811 5 -0.03 0.840206 0.629506 0.903493
2812 5 -0.03 0.95478 0.650145 0.903493
2813 5 -0.03 0.916588 0.629506 0.903493
2814 5 -0.03 0.992971 0.629506 0.903493
2815 5 -0.03 0.0763824 0.712064 0.903493
2816 5 -0.03 0.0381912 0.691424 0.903493
2817 5 -0.03 0.152765 0.712064 0.903493
2818 5 -0.03 0.114574 0.691424 0.903493
2819 5 -0.03 0.229147 0.712064 0.903493
2820 5 -0.03 0.190956 0.691424 0.903493
2821 5 -0.03 0.305529 0.712064 0.903493
2822 5 -0.03 0.267338 0.691424 0.903493
2841 5 -0.03 0.0381912 0.773983 0.903493
2842 5 -0.03 0.114574 0.773983 0.903493
2843 5 -0.03 0.0763824 0.753343 0.903493
2844 5 -0.03 0.190956 0.773983 0.903493
2845 5 -0.03 0.152765 0.753343 0.903493
2846 5 -0.03 0.267338 0.773983 0.903493
2847 5 -0.03 0.229147 0.753343 0.903493
2849 5 -0.03 0.305529 0.753343 0.903493
2867 5 -0.03 0.0763824 0.835901 0.903493
2868 5 -0.03 0.0381912 0.815262 0.903493
2869 5 -0.03 0.152765 0.835901 0.903493
2870 5 -0.03 0.114574 0.815262 0.903493
2871 5 -0.03 0.229147 0.835901 0.903493
2872 5 -0.03 0.190956 0.815262 0.903493
2873 5 -0.03 0.305529 0.835901 0.903493
2874 5 -0.03 0.267338 0.815262 0.903493
2893 5 -0.03 0.0381912 0.89782 0.903493
2894 5 -0.03 0.114574 0.89782 0.903493
2895 5 -0.03 0.0763824 0.87718 0.903493
2896 5 -0.03 0.190956 0.89782 0.903493
2897 5 -0.03 0.152765 0.87718 0.903493
2898 5 -0.03 0.267338 0.89782 0.903493
2899 5 -0.03 0.229147 0.87718 0.903493
2901 5 -0.03 0.305529 0.87718 0.903493
2919 5 -0.03 0.0763824 0.959738 0.903493
2920 5 -0.03 0.0381912 0.939099 0.903493
2921 5 -0.03 0.152765 0.959738 0.903493
2922 5 -0.03 0.114574 0.939099 0.903493
2923 5 -0.03 0.229147 0.959738 0.903493
2924 5 -0.03 0.190956 0.939099 0.903493
2925 5 -0.03 0.305529 0.959738 0.903493
2926 5 -0.03 0.267338 0.939099 0.903493
2823 5 -0.03 0.381912 0.712064 0.903493
2824 5 -0.03 0.343721 0.691424 0.903493
2825 5 -0.03 0.458294 0.712064 0.903493
2826 5 -0.03 0.420103 0.691424 0.903493
2827 5 -0.03 0.534677 0.712064 0.903493
2828 5 -0.03 0.496485 0.691424 0.903493
2829 5 -0.03 0.611059 0.712064 0.903493
2830 5 -0.03 0.572868 0.691424 0.903493
2832 5 -0.03 0.64925 0.691424 0.903493
2848 5 -0.03 0.343721 0.773983 0.903493
2850 5 -0.03 0.420103 0.773983 0.903493
2851 5 -0.03 0.381912 0.753343 0.903493
2852 5 -0.03 0.496485 0.773983 0.903493
2853 5 -0.03 0.458294 0.753343 0.903493
2854 5 -0.03 0.572868 0.773983 0.903493
2855 5 -0.03 0.534677 0.753343 0.903493
2856 5 -0.03 0.64925 0.773983 0.903493
2857 5 -0.03 0.611059 0.753343 0.903493
2875 5 -0.03 0.381912 0.835901 0.903493
2876 5 -0.03 0.343721 0.815262 0.903493
2877 5 -0.03 0.458294 0.835901 0.903493
2878 5 -0.03 0.420103 0.815262 0.903493
2879 5 -0.03 0.534677 0.835901 0.903493
2880 5 -0.03 0.496485 0.815262 0.903493
2881 5 -0.03 0.611059 0.835901 0.903493
2882 5 -0.03 0.572868 0.815262 0.903493
2884 5 -0.03 0.64925 0.815262 0.903493
2900 5 -0.03 0.343721 0.89782 0.903493
2902 5 -0.03 0.420103 0.89782 0.903493
2903 5 -0.03 0.381912 0.87718 0.903493
2904 5 -0.03 0.496485 0.89782 0.903493
2905 5 -0.03 0.458294 0.87718 0.903493
2906 5 -0.03 0.572868 0.89782 0.903493
2907 5 -0.03 0.534677 0.87718 0.903493
2908 5 -0.03 0.64925 0.89782 0.903493
2909 5 -0.03 0.611059 0.87718 0.903493
2927 5 -0.03 0.381912 0.959738 0.903493
2928 5 -0.03 0.343721 0.939099 0.903493
2929 5 -0.03 0.458294 0.959738 0.903493
2930 5 -0.03 0.420103 0.939099 0.903493
2931 5 -0.03 0.534677 0.959738 0.903493
2932 5 -0.03 0.496485 0.939099 0.903493
2933 5 -0.03 0.611059 0.959738 0.903493
2934 5 -0.03 0.572868 0.939099 0.903493
2936 5 -0.03 0.64925 0.939099 0.903493
2831 5 -0.03 0.687441 0.712064 0.903493
2833 5 -0.03 0.763824 0.712064 0.903493
2834 5 -0.03 0.725632 0.691424 0.903493
2835 5 -0.03 0.840206 0.712064 0.903493
2836 5 -0.03 0.802015 0.691424 0.903493
2837 5 -0.03 0.916588 0.712064 0.903493
2838 5 -0.03 0.878397 0.691424 0.903493
2839 5 -0.03 0.992971 0.712064 0.903493
2840 5 -0.03 0.95478 0.691424 0.903493
2858 5 -0.03 0.725632 0.773983 0.903493
2859 5 -0.03 0.687441 0.753343 0.903493
2860 5 -0.03 0.802015 0.773983 0.903493
2861 5 -0.03 0.763824 0.753343 0.903493
2862 5 -0.03 0.878397 0.773983 0.903493
2863 5 -0.03 0.840206 0.753343 0.903493
2864 5 -0.03 0.95478 0.773983 0.903493
2865 5 -0.03 0.916588 0.753343 0.903493
2866 5 -0.03 0.992971 0.753343 0.903493
2883 5 -0.03 0.687441 0.835901 0.903493
2885 5 -0.03 0.763824 0.835901 0.903493
2886 5 -0.03 0.725632 0.815262 0.903493
2887 5 -0.03 0.840206 0.835901 0.903493
2888 5 -0.03 0.802015 0.815262 0.903493
2889 5 -0.03 0.916588 0.835901 0.903493
2890 5 -0.03 0.878397 0.815262 0.903493
2891 5 -0.03 0.992971 0.835901 0.903493
2892 5 -0.03 0.95478 0.815262 0.903493
2910 5 -0.03 0.725632 0.89782 0.903493
2911 5 -0.03 0.687441 0.87718 0.903493
2912 5 -0.03 0.802015 0.89782 0.903493
2913 5 -0.03 0.763824 0.87718 0.903493
2914 5 -0.03 0.878397 0.89782 0.903493
2915 5 -0.03 0.840206 0.87718 0.903493
2916 5 -0.03 0.95478 0.89782 0.903493
2917 5 -0.03 0.916588 0.87718 0.903493
2918 5 -0.03 0.992971 0.87718 0.903493
2935 5 -0.03 0.687441 0.959738 0.903493
2937 5 -0.03 0.763824 0.959738 0.903493
2938 5 -0.03 0.725632 0.939099 0.903493
2939 5 -0.03 0.840206 0.959738 0.903493
2940 5 -0.03 0.802015 0.939099 0.903493
2941 5 -0.03 0.916588 0.959738 0.903493
2942 5 -0.03 0.878397 0.939099 0.903493
2943 5 -0.03 0.992971 0.959738 0.903493
2944 5 -0.03 0.95478 0.939099 0.903493
ITEM: TIMESTEP
5000
ITEM: NUMBER OF ATOMS
416
ITEM: BOX BOUNDS pp pp pp
0.0000000000000000e+00 3.2200000000000003e+01
0.0000000000000000e+00 3.4399999999999999e+01
-6.8000000000000000e+01 6.8000000000000000e+01
ITEM: ATOMS id type q xs ys zs
2529 5 -0.03 0.0381912 0.0309593 0.903493
2530 5 -0.03 0.114574 0.0309593 0.903493
2531 5 -0.03 0.0763824 0.0103198 0.903493
2532 5 -0.03 0.190956 0.0309593 0.903493
2533 5 -0.03 0.152765 0.0103198 0.903493
2534 5 -0.03 0.267338 0.0309593 0.903493
2535 5 -0.03 0.229147 0.0103198 0.903493
2537 5 -0.03 0.305529 0.0103198 0.903493
2555 5 -0.03 0.0763824 0.0928779 0.903493
2556 5 -0.03 0.0381912 0.0722384 0.903493
2557 5 -0.03 0.152765 0.0928779 0.903493
2558 5 -0.03 0.114574 0.0722384 0.903493
2559 5 -0.03 0.229147 0.0928779 0.903493
2560 5 -0.03 0.190956 0.0722384 0.903493
2561 5 -0.03 0.305529 0.0928779 0.903493
2562 5 -0.03 0.267338 0.0722384 0.903493
2581 5 -0.03 0.0381912 0.154797 0.903493
2582 5 -0.03 0.114574 0.154797 0.903493
2583 5 -0.03 0.0763824 0.134157 0.903493
2584 5 -0.03 0.190956 0.154797 0.903493
2585 5 -0.03 0.152765 0.134157 0.903493
2586 5 -0.03 0.267338 0.154797 0.903493
2587 5 -0.03 0.229147 0.134157 0.903493
2589 5 -0.03 0.305529 0.134157 0.903493
2607 5 -0.03 0.0763824 0.216715 0.903493
2608 5 -0.03 0.0381912 0.196076 0.903493
2609 5 -0.03 0.152765 0.216715 0.903493
2610 5 -0.03 0.114574 0.196076 0.903493
2611 5 -0.03 0.229147 0.216715 0.903493
2612 5 -0.03 0.190956 0.196076 0.903493
2613 5 -0.03 0.305529 0.216715 0.903493
2614 5 -0.03 0.267338 0.196076 0.903493
2633 5 -0.03 0.0381912 0.278634 0.903493
2634 5 -0.03 0.114574 0.278634 0.903493
2635 5 -0.03 0.0763824 0.257994 0.903493
2636 5 -0.03 0.190956 0.278634 0.903493
2637 5 -0.03 0.152765 0.257994 0.903493
2638 5 -0.03 0.267338 0.278634 0.903493
2639 5 -0.03 0.229147 0.257994 0.903493
2641 5 -0.03 0.305529 0.257994 0.903493
2660 5 -0.03 0.0381912 0.319913 0.903493
2662 5 -0.03 0.114574 0.319913 0.903493
2664 5 -0.03 0.190956 0.319913 0.903493
2666 5 -0.03 0.267338 0.319913 0.903493
2536 5 -0.03 0.343721 0.0309593 0.903493
2538 5 -0.03 0.420103 0.0309593 0.903493
2539 5 -0.03 0.381912 0.0103198 0.903493
2540 5 -0.03 0.496485 0.0309593 0.903493
2541 5 -0.03 0.458294 0.0103198 0.903493
2542 5 -0.03 0.572868 0.0309593 0.903493
2543 5 -0.03 0.534677 0.0103198 0.903493
2544 5 -0.03 0.64925 0.0309593 0.903493
2545 5 -0.03 0.611059 0.0103198 0.903493
2563 5 -0.03 0.381912 0.0928779 0.903493
2564 5 -0.03 0.343721 0.0722384 0.903493
2565 5 -0.03 0.458294 0.0928779 0.903493
2566 5 -0.03 0.420103 0.0722384 0.903493
2567 5 -0.03 0.534677 0.0928779 0.903493
2568 5 -0.03 0.496485 0.0722384 0.903493
2569 5 -0.03 0.611059 0.0928779 0.903493
2570 5 -0.03 0.572868 0.0722384 0.903493
2572 5 -0.03 0.64925 0.0722384 0.903493
2588 5 -0.03 0.343721 0.154797 0.903493
2590 5 -0.03 0.420103 0.154797 0.903493
2591 5 -0.03 0.381912 0.134157 0.903493
2592 5 -0.03 0.496485 0.154797 0.903493
2593 5 -0.03 0.458294 0.134157 0.903493
2594 5 -0.03 0.572868 0.154797 0.903493
2595 5 -0.03 0.534677 0.134157 0.903493
2596 5 -0.03 0.64925 0.154797 0.903493
2597 5 -0.03 0.611059 0.134157 0.903493
2615 5 -0.03 0.381912 0.216715 0.903493
2616 5 -0.03 0.343721 0.196076 0.903493
2617 5 -0.03 0.458294 0.216715 0.903493
2618 5 -0.03 0.420103 0.196076 0.903493
2619 5 -0.03 0.534677 0.216715 0.903493
2620 5 -0.03 0.496485 0.196076 0.903493
2621 5 -0.03 0.611059 0.216715 0.903493
2622 5 -0.03 0.572868 0.196076 0.903493
2624 5 -0.03 0.64925 0.196076 0.903493
2640 5 -0.03 0.343721 0.278634 0.903493
2642 5 -0.03 0.420103 0.278634 0.903493
2643 5 -0.03 0.381912 0.257994 0.903493
2644 5 -0.03 0.496485 0.278634 0.903493
2645 5 -0.03 0.458294 0.257994 0.903493
2646 5 -0.03 0.572868 0.278634 0.903493
2647 5 -0.03 0.534677 0.257994 0.903493
2648 5 -0.03 0.64925 0.278634 0.903493
2649 5 -0.03 0.611059 0.257994 0.903493
2668 5 -0.03 0.343721 0.319913 0.903493
2670 5 -0.03 0.420103 0.319913 0.903493
2672 5 -0.03 0.496485 0.319913 0.903493
2674 5 -0.03 0.572868 0.319913 0.903493
2676 5 -0.03 0.64925 0.319913 0.903493
2546 5 -0.03 0.725632 0.0309593 0.903493
2547 5 -0.03 0.687441 0.0103198 0.903493
2548 5 -0.03 0.802015 0.0309593 0.903493
2549 5 -0.03 0.763824 0.0103198 0.903493
2550 5 -0.03 0.878397 0.0309593 0.903493
2551 5 -0.03 0.840206 0.0103198 0.903493
2552 5 -0.03 0.95478 0.0309593 0.903493
2553 5 -0.03 0.916588 0.0103198 0.903493
2554 5 -0.03 0.992971 0.0103198 0.903493
2571 5 -0.03 0.687441 0.0928779 0.903493
2573 5 -0.03 0.763824 0.0928779 0.903493
2574 5 -0.03 0.725632 0.0722384 0.903493
2575 5 -0.03 0.840206 0.0928779 0.903493
2576 5 -0.03 0.802015 0.0722384 0.903493
2577 5 -0.03 0.916588 0.0928779 0.903493
2578 5 -0.03 0.878397 0.0722384 0.903493
2579 5 -0.03 0.992971 0.0928779 0.903493
2580 5 -0.03 0.95478 0.0722384 0.903493
2598 5 -0.03 0.725632 0.154797 0.903493
2599 5 -0.03 0.687441 0.134157 0.903493
2600 5 -0.03 0.802015 0.154797 0.903493
2601 5 -0.03 0.763824 0.134157 0.903493
2602 5 -0.03 0.878397 0.154797 0.903493
2603 5 -0.03 0.840206 0.134157 0.903493
2604 5 -0.03 0.95478 0.154797 0.903493
2605 5 -0.03 0.916588 0.134157 0.903493
2606 5 -0.03 0.992971 0.134157 0.903493
2623 5 -0.03 0.687441 0.216715 0.903493
2625 5 -0.03 0.763824 0.216715 0.903493
2626 5 -0.03 0.725632 0.196076 0.903493
2627 5 -0.03 0.840206 0.216715 0.903493
2628 5 -0.03 0.802015 0.196076 0.903493
2629 5 -0.03 0.916588 0.216715 0.903493
2630 5 -0.03 0.878397 0.196076 0.903493
2631 5 -0.03 0.992971 0.216715 0.903493
2632 5 -0.03 0.95478 0.196076 0.903493
2650 5 -0.03 0.725632 0.278634 0.903493
2651 5 -0.03 0.687441 0.257994 0.903493
2652 5 -0.03 0.802015 0.278634 0.903493
2653 5 -0.03 0.763824 0.257994 0.903493
2654 5 -0.03 0.878397 0.278634 0.903493
2655 5 -0.03 0.840206 0.257994 0.903493
2656 5 -0.03 0.95478 0.278634 0.903493
2657 5 -0.03 0.916588 0.257994 0.903493
2658 5 -0.03 0.992971 0.257994 0.903493
2678 5 -0.03 0.725632 0.319913 0.903493
2680 5 -0.03 0.802015 0.319913 0.903493
2682 5 -0.03 0.878397 0.319913 0.903493
2684 5 -0.03 0.95478 0.319913 0.903493
2659 5 -0.03 0.0763824 0.340552 0.903493
2661 5 -0.03 0.152765 0.340552 0.903493
2663 5 -0.03 0.229147 0.340552 0.903493
2665 5 -0.03 0.305529 0.340552 0.903493
2685 5 -0.03 0.0381912 0.402471 0.903493
2686 5 -0.03 0.114574 0.402471 0.903493
2687 5 -0.03 0.0763824 0.381831 0.903493
2688 5 -0.03 0.190956 0.402471 0.903493
2689 5 -0.03 0.152765 0.381831 0.903493
2690 5 -0.03 0.267338 0.402471 0.903493
2691 5 -0.03 0.229147 0.381831 0.903493
2693 5 -0.03 0.305529 0.381831 0.903493
2711 5 -0.03 0.0763824 0.46439 0.903493
2712 5 -0.03 0.0381912 0.44375 0.903493
2713 5 -0.03 0.152765 0.46439 0.903493
2714 5 -0.03 0.114574 0.44375 0.903493
2715 5 -0.03 0.229147 0.46439 0.903493
2716 5 -0.03 0.190956 0.44375 0.903493
2717 5 -0.03 0.305529 0.46439 0.903493
2718 5 -0.03 0.267338 0.44375 0.903493
2737 5 -0.03 0.0381912 0.526308 0.903493
2738 5 -0.03 0.114574 0.526308 0.903493
2739 5 -0.03 0.0763824 0.505669 0.903493
2740 5 -0.03 0.190956 0.526308 0.903493
2741 5 -0.03 0.152765 0.505669 0.903493
2742 5 -0.03 0.267338 0.526308 0.903493
2743 5 -0.03 0.229147 0.505669 0.903493
2745 5 -0.03 0.305529 0.505669 0.903493
2763 5 -0.03 0.0763824 0.588227 0.903493
2764 5 -0.03 0.0381912 0.567587 0.903493
2765 5 -0.03 0.152765 0.588227 0.903493
2766 5 -0.03 0.114574 0.567587 0.903493
2767 5 -0.03 0.229147 0.588227 0.903493
2768 5 -0.03 0.190956 0.567587 0.903493
2769 5 -0.03 0.305529 0.588227 0.903493
2770 5 -0.03 0.267338 0.567587 0.903493
2789 5 -0.03 0.0381912 0.650145 0.903493
2790 5 -0.03 0.114574 0.650145 0.903493
2791 5 -0.03 0.0763824 0.629506 0.903493
2792 5 -0.03 0.190956 0.650145 0.903493
2793 5 -0.03 0.152765 0.629506 0.903493
2794 5 -0.03 0.267338 0.650145 0.903493
2795 5 -0.03 0.229147 0.629506 0.903493
2797 5 -0.03 0.305529 0.629506 0.903493
2667 5 -0.03 0.381912 0.340552 0.903493
2669 5 -0.03 0.458294 0.340552 0.903493
2671 5 -0.03 0.534677 0.340552 0.903493
2673 5 -0.03 0.611059 0.340552 0.903493
2692 5 -0.03 0.343721 0.402471 0.903493
2694 5 -0.03 0.420103 0.402471 0.903493
2695 5 -0.03 0.381912 0.381831 0.903493
2696 5 -0.03 0.496485 0.402471 0.903493
2697 5 -0.03 0.458294 0.381831 0.903493
2698 5 -0.03 0.572868 0.402471 0.903493
2699 5 -0.03 0.534677 0.381831 0.903493
2700 5 -0.03 0.64925 0.402471 0.903493
2701 5 -0.03 0.611059 0.381831 0.903493
2719 5 -0.03 0.381912 0.46439 0.903493
2720 5 -0.03 0.343721 0.44375 0.903493
2721 5 -0.03 0.458294 0.46439 0.903493
2722 5 -0.03 0.420103 0.44375 0.903493
2723 5 -0.03 0.534677 0.46439 0.903493
2724 5 -0.03 0.496485 0.44375 0.903493
2725 5 -0.03 0.611059 0.46439 0.903493
2726 5 -0.03 0.572868 0.44375 0.903493
2728 5 -0.03 0.64925 0.44375 0.903493
2744 5 -0.03 0.343721 0.526308 0.903493
2746 5 -0.03 0.420103 0.526308 0.903493
2747 5 -0.03 0.381912 0.505669 0.903493
2748 5 -0.03 0.496485 0.526308 0.903493
2749 5 -0.03 0.458294 0.505669 0.903493
2750 5 -0.03 0.572868 0.526308 0.903493
2751 5 -0.03 0.534677 0.505669 0.903493
2752 5 -0.03 0.64925 0.526308 0.903493
2753 5 -0.03 0.611059 0.505669 0.903493
2771 5 -0.03 0.381912 0.588227 0.903493
2772 5 -0.03 0.343721 0.567587 0.903493
2773 5 -0.03 0.458294 0.588227 0.903493
2774 5 -0.03 0.420103 0.567587 0.903493
2775 5 -0.03 0.534677 0.588227 0.903493
2776 5 -0.03 0.496485 0.567587 0.903493
2777 5 -0.03 0.611059 0.588227 0.903493
2778 5 -0.03 0.572868 0.567587 0.903493
2780 5 -0.03 0.64925 0.567587 0.903493
2796 5 -0.03 0.343721 0.650145 0.903493
2798 5 -0.03 0.420103 0.650145 0.903493
2799 5 -0.03 0.381912 0.629506 0.903493
2800 5 -0.03 0.496485 0.650145 0.903493
2801 5 -0.03 0.458294 0.629506 0.903493
2802 5 -0.03 0.572868 0.650145 0.903493
2803 5 -0.03 0.534677 0.629506 0.903493
2804 5 -0.03 0.64925 0.650145 0.903493
2805 5 -0.03 0.611059 0.629506 0.903493
2675 5 -0.03 0.687441 0.340552 0.903493
2677 5 -0.03 0.763824 0.340552 0.903493
2679 5 -0.03 0.840206 0.340552 0.903493
2681 5 -0.03 0.916588 0.340552 0.903493
2683 5 -0.03 0.992971 0.340552 0.903493
2702 5 -0.03 0.725632 0.402471 0.903493
2703 5 -0.03 0.687441 0.381831 0.903493
2704 5 -0.03 0.802015 0.402471 0.903493
2705 5 -0.03 0.763824 0.381831 0.903493
2706 5 -0.03 0.878397 0.402471 0.903493
2707 5 -0.03 0.840206 0.381831 0.903493
2708 5 -0.03 0.95478 0.402471 0.903493
2709 5 -0.03 0.916588 0.381831 0.903493
2710 5 -0.03 0.992971 0.381831 0.903493
2727 5 -0.03 0.687441 0.46439 0.903493
2729 5 -0.03 0.763824 0.46439 0.903493
2730 5 -0.03 0.725632 0.44375 0.903493
2731 5 -0.03 0.840206 0.46439 0.903493
2732 5 -0.03 0.802015 0.44375 0.903493
2733 5 -0.03 0.916588 0.46439 0.903493
2734 5 -0.03 0.878397 0.44375 0.903493
2735 5 -0.03 0.992971 0.46439 0.903493
2736 5 -0.03 0.95478 0.44375 0.903493
2754 5 -0.03 0.725632 0.526308 0.903493
2755 5 -0.03 0.687441 0.505669 0.903493
2756 5 -0.03 0.802015 0.526308 0.903493
2757 5 -0.03 0.763824 0.505669 0.903493
2758 5 -0.03 0.878397 0.526308 0.903493
2759 5 -0.03 0.840206 0.505669 0.903493
2760 5 -0.03 0.95478 0.526308 0.903493
2761 5 -0.03 0.916588 0.505669 0.903493
2762 5 -0.03 0.992971 0.505669 0.903493
2779 5 -0.03 0.687441 0.588227 0.903493
2781 5 -0.03 0.763824 0.588227 0.903493
2782 5 -0.03 0.725632 0.567587 0.903493
2783 5 -0.03 0.840206 0.588227 0.903493
2784 5 -0.03 0.802015 0.567587 0.903493
2785 5 -0.03 0.916588 0.588227 0.903493
2786 5 -0.03 0.878397 0.567587 0.903493
2787 5 -0.03 0.992971 0.588227 0.903493
2788 5 -0.03 0.95478 0.567587 0.903493
2806 5 -0.03 0.725632 0.650145 0.903493
2807 5 -0.03 0.687441 0.629506 0.903493
2808 5 -0.03 0.802015 0.650145 0.903493
2809 5 -0.03 0.763824 0.629506 0.903493
2810 5 -0.03 0.878397 0.650145 0.903493
2811 5 -0.03 0.840206 0.629506 0.903493
2812 5 -0.03 0.95478 0.650145 0.903493
2813 5 -0.03 0.916588 0.629506 0.903493
2814 5 -0.03 0.992971 0.629506 0.903493
2815 5 -0.03 0.0763824 0.712064 0.903493
2816 5 -0.03 0.0381912 0.691424 0.903493
2817 5 -0.03 0.152765 0.712064 0.903493
2818 5 -0.03 0.114574 0.691424 0.903493
2819 5 -0.03 0.229147 0.712064 0.903493
2820 5 -0.03 0.190956 0.691424 0.903493
2821 5 -0.03 0.305529 0.712064 0.903493
2822 5 -0.03 0.267338 0.691424 0.903493
2841 5 -0.03 0.0381912 0.773983 0.903493
2842 5 -0.03 0.114574 0.773983 0.903493
2843 5 -0.03 0.0763824 0.753343 0.903493
2844 5 -0.03 0.190956 0.773983 0.903493
2845 5 -0.03 0.152765 0.753343 0.903493
2846 5 -0.03 0.267338 0.773983 0.903493
2847 5 -0.03 0.229147 0.753343 0.903493
2849 5 -0.03 0.305529 0.753343 0.903493
2867 5 -0.03 0.0763824 0.835901 0.903493
2868 5 -0.03 0.0381912 0.815262 0.903493
2869 5 -0.03 0.152765 0.835901 0.903493
2870 5 -0.03 0.114574 0.815262 0.903493
2871 5 -0.03 0.229147 0.835901 0.903493
2872 5 -0.03 0.190956 0.815262 0.903493
2873 5 -0.03 0.305529 0.835901 0.903493
2874 5 -0.03 0.267338 0.815262 0.903493
2893 5 -0.03 0.0381912 0.89782 0.903493
2894 5 -0.03 0.114574 0.89782 0.903493
2895 5 -0.03 0.0763824 0.87718 0.903493
2896 5 -0.03 0.190956 0.89782 0.903493
2897 5 -0.03 0.152765 0.87718 0.903493
2898 5 -0.03 0.267338 0.89782 0.903493
2899 5 -0.03 0.229147 0.87718 0.903493
2901 5 -0.03 0.305529 0.87718 0.903493
2919 5 -0.03 0.0763824 0.959738 0.903493
2920 5 -0.03 0.0381912 0.939099 0.903493
2921 5 -0.03 0.152765 0.959738 0.903493