ITEM: TIMESTEP
0
ITEM: NUMBER OF ATOMS
416
ITEM: BOX BOUNDS pp pp pp
0.0000000000000000e+00 3.2200000000000003e+01
0.0000000000000000e+00 3.4399999999999999e+01
-6.8000000000000000e+01 6.8000000000000000e+01
ITEM: ATOMS id type q xs ys zs
1698 5 0.03 0.0381912 0.0309593 0.0965074
1701 5 0.03 0.114574 0.0309593 0.0965074
1702 5 0.03 0.0763824 0.0103198 0.0965074
1705 5 0.03 0.190956 0.0309593 0.0965074
1706 5 0.03 0.152765 0.0103198 0.0965074
1709 5 0.03 0.267338 0.0309593 0.0965074
1710 5 0.03 0.229147 0.0103198 0.0965074
1714 5 0.03 0.305529 0.0103198 0.0965074
1751 5 0.03 0.0763824 0.0928779 0.0965074
1752 5 0.03 0.0381912 0.0722384 0.0965074
1755 5 0.03 0.152765 0.0928779 0.0965074
1756 5 0.03 0.114574 0.0722384 0.0965074
1759 5 0.03 0.229147 0.0928779 0.0965074
1760 5 0.03 0.190956 0.0722384 0.0965074
1763 5 0.03 0.305529 0.0928779 0.0965074
1764 5 0.03 0.267338 0.0722384 0.0965074
1802 5 0.03 0.0381912 0.154797 0.0965074
1805 5 0.03 0.114574 0.154797 0.0965074
1806 5 0.03 0.0763824 0.134157 0.0965074
1809 5 0.03 0.190956 0.154797 0.0965074
1810 5 0.03 0.152765 0.134157 0.0965074
1813 5 0.03 0.267338 0.154797 0.0965074
1814 5 0.03 0.229147 0.134157 0.0965074
1818 5 0.03 0.305529 0.134157 0.0965074
1855 5 0.03 0.0763824 0.216715 0.0965074
1856 5 0.03 0.0381912 0.196076 0.0965074
1859 5 0.03 0.152765 0.216715 0.0965074
1860 5 0.03 0.114574 0.196076 0.0965074
1863 5 0.03 0.229147 0.216715 0.0965074
1864 5 0.03 0.190956 0.196076 0.0965074
1867 5 0.03 0.305529 0.216715 0.0965074
1868 5 0.03 0.267338 0.196076 0.0965074
1906 5 0.03 0.0381912 0.278634 0.0965074
1909 5 0.03 0.114574 0.278634 0.0965074
1910 5 0.03 0.0763824 0.257994 0.0965074
1913 5 0.03 0.190956 0.278634 0.0965074
1914 5 0.03 0.152765 0.257994 0.0965074
1917 5 0.03 0.267338 0.278634 0.0965074
1918 5 0.03 0.229147 0.257994 0.0965074
1922 5 0.03 0.305529 0.257994 0.0965074
1960 5 0.03 0.0381912 0.319913 0.0965074
1964 5 0.03 0.114574 0.319913 0.0965074
1968 5 0.03 0.190956 0.319913 0.0965074
1972 5 0.03 0.267338 0.319913 0.0965074
1713 5 0.03 0.343721 0.0309593 0.0965074
1717 5 0.03 0.420103 0.0309593 0.0965074
1718 5 0.03 0.381912 0.0103198 0.0965074
1721 5 0.03 0.496485 0.0309593 0.0965074
1722 5 0.03 0.458294 0.0103198 0.0965074
1725 5 0.03 0.572868 0.0309593 0.0965074
1726 5 0.03 0.534677 0.0103198 0.0965074
1729 5 0.03 0.64925 0.0309593 0.0965074
1730 5 0.03 0.611059 0.0103198 0.0965074
1767 5 0.03 0.381912 0.0928779 0.0965074
1768 5 0.03 0.343721 0.0722384 0.0965074
1771 5 0.03 0.458294 0.0928779 0.0965074
1772 5 0.03 0.420103 0.0722384 0.0965074
1775 5 0.03 0.534677 0.0928779 0.0965074
1776 5 0.03 0.496485 0.0722384 0.0965074
1779 5 0.03 0.611059 0.0928779 0.0965074
1780 5 0.03 0.572868 0.0722384 0.0965074
1784 5 0.03 0.64925 0.0722384 0.0965074
1817 5 0.03 0.343721 0.154797 0.0965074
1821 5 0.03 0.420103 0.154797 0.0965074
1822 5 0.03 0.381912 0.134157 0.0965074
1825 5 0.03 0.496485 0.154797 0.0965074
1826 5 0.03 0.458294 0.134157 0.0965074
1829 5 0.03 0.572868 0.154797 0.0965074
1830 5 0.03 0.534677 0.134157 0.0965074
1833 5 0.03 0.64925 0.154797 0.0965074
1834 5 0.03 0.611059 0.134157 0.0965074
1871 5 0.03 0.381912 0.216715 0.0965074
1872 5 0.03 0.343721 0.196076 0.0965074
1875 5 0.03 0.458294 0.216715 0.0965074
1876 5 0.03 0.420103 0.196076 0.0965074
1879 5 0.03 0.534677 0.216715 0.0965074
1880 5 0.03 0.496485 0.196076 0.0965074
1883 5 0.03 0.611059 0.216715 0.0965074
1884 5 0.03 0.572868 0.196076 0.0965074
1888 5 0.03 0.64925 0.196076 0.0965074
1921 5 0.03 0.343721 0.278634 0.0965074
1925 5 0.03 0.420103 0.278634 0.0965074
1926 5 0.03 0.381912 0.257994 0.0965074
1929 5 0.03 0.496485 0.278634 0.0965074
1930 5 0.03 0.458294 0.257994 0.0965074
1933 5 0.03 0.572868 0.278634 0.0965074
1934 5 0.03 0.534677 0.257994 0.0965074
1937 5 0.03 0.64925 0.278634 0.0965074
1938 5 0.03 0.611059 0.257994 0.0965074
1976 5 0.03 0.343721 0.319913 0.0965074
1980 5 0.03 0.420103 0.319913 0.0965074
1984 5 0.03 0.496485 0.319913 0.0965074
1988 5 0.03 0.572868 0.319913 0.0965074
1992 5 0.03 0.64925 0.319913 0.0965074
1733 5 0.03 0.725632 0.0309593 0.0965074
1734 5 0.03 0.687441 0.0103198 0.0965074
1737 5 0.03 0.802015 0.0309593 0.0965074
1738 5 0.03 0.763824 0.0103198 0.0965074
1741 5 0.03 0.878397 0.0309593 0.0965074
1742 5 0.03 0.840206 0.0103198 0.0965074
1745 5 0.03 0.95478 0.0309593 0.0965074
1746 5 0.03 0.916588 0.0103198 0.0965074
1748 5 0.03 0.992971 0.0103198 0.0965074
1783 5 0.03 0.687441 0.0928779 0.0965074
1787 5 0.03 0.763824 0.0928779 0.0965074
1788 5 0.03 0.725632 0.0722384 0.0965074
1791 5 0.03 0.840206 0.0928779 0.0965074
1792 5 0.03 0.802015 0.0722384 0.0965074
1795 5 0.03 0.916588 0.0928779 0.0965074
1796 5 0.03 0.878397 0.0722384 0.0965074
1799 5 0.03 0.992971 0.0928779 0.0965074
1800 5 0.03 0.95478 0.0722384 0.0965074
1837 5 0.03 0.725632 0.154797 0.0965074
1838 5 0.03 0.687441 0.134157 0.0965074
1841 5 0.03 0.802015 0.154797 0.0965074
1842 5 0.03 0.763824 0.134157 0.0965074
1845 5 0.03 0.878397 0.154797 0.0965074
1846 5 0.03 0.840206 0.134157 0.0965074
1849 5 0.03 0.95478 0.154797 0.0965074
1850 5 0.03 0.916588 0.134157 0.0965074
1852 5 0.03 0.992971 0.134157 0.0965074
1887 5 0.03 0.687441 0.216715 0.0965074
1891 5 0.03 0.763824 0.216715 0.0965074
1892 5 0.03 0.725632 0.196076 0.0965074
1895 5 0.03 0.840206 0.216715 0.0965074
1896 5 0.03 0.802015 0.196076 0.0965074
1899 5 0.03 0.916588 0.216715 0.0965074
1900 5 0.03 0.878397 0.196076 0.0965074
1903 5 0.03 0.992971 0.216715 0.0965074
1904 5 0.03 0.95478 0.196076 0.0965074
1941 5 0.03 0.725632 0.278634 0.0965074
1942 5 0.03 0.687441 0.257994 0.0965074
1945 5 0.03 0.802015 0.278634 0.0965074
1946 5 0.03 0.763824 0.257994 0.0965074
1949 5 0.03 0.878397 0.278634 0.0965074
1950 5 0.03 0.840206 0.257994 0.0965074
1953 5 0.03 0.95478 0.278634 0.0965074
1954 5 0.03 0.916588 0.257994 0.0965074
1956 5 0.03 0.992971 0.257994 0.0965074
1996 5 0.03 0.725632 0.319913 0.0965074
2000 5 0.03 0.802015 0.319913 0.0965074
2004 5 0.03 0.878397 0.319913 0.0965074
2008 5 0.03 0.95478 0.319913 0.0965074
1959 5 0.03 0.0763824 0.340552 0.0965074
1963 5 0.03 0.152765 0.340552 0.0965074
1967 5 0.03 0.229147 0.340552 0.0965074
1971 5 0.03 0.305529 0.340552 0.0965074
2010 5 0.03 0.0381912 0.402471 0.0965074
2013 5 0.03 0.114574 0.402471 0.0965074
2014 5 0.03 0.0763824 0.381831 0.0965074
2017 5 0.03 0.190956 0.402471 0.0965074
2018 5 0.03 0.152765 0.381831 0.0965074
2021 5 0.03 0.267338 0.402471 0.0965074
2022 5 0.03 0.229147 0.381831 0.0965074
2026 5 0.03 0.305529 0.381831 0.0965074
2063 5 0.03 0.0763824 0.46439 0.0965074
2064 5 0.03 0.0381912 0.44375 0.0965074
2067 5 0.03 0.152765 0.46439 0.0965074
2068 5 0.03 0.114574 0.44375 0.0965074
2071 5 0.03 0.229147 0.46439 0.0965074
2072 5 0.03 0.190956 0.44375 0.0965074
2075 5 0.03 0.305529 0.46439 0.0965074
2076 5 0.03 0.267338 0.44375 0.0965074
2114 5 0.03 0.0381912 0.526308 0.0965074
2117 5 0.03 0.114574 0.526308 0.0965074
2118 5 0.03 0.0763824 0.505669 0.0965074
2121 5 0.03 0.190956 0.526308 0.0965074
2122 5 0.03 0.152765 0.505669 0.0965074
2125 5 0.03 0.267338 0.526308 0.0965074
2126 5 0.03 0.229147 0.505669 0.0965074
2130 5 0.03 0.305529 0.505669 0.0965074
2167 5 0.03 0.0763824 0.588227 0.0965074
2168 5 0.03 0.0381912 0.567587 0.0965074
2171 5 0.03 0.152765 0.588227 0.0965074
2172 5 0.03 0.114574 0.567587 0.0965074
2175 5 0.03 0.229147 0.588227 0.0965074
2176 5 0.03 0.190956 0.567587 0.0965074
2179 5 0.03 0.305529 0.588227 0.0965074
2180 5 0.03 0.267338 0.567587 0.0965074
2218 5 0.03 0.0381912 0.650145 0.0965074
2221 5 0.03 0.114574 0.650145 0.0965074
2222 5 0.03 0.0763824 0.629506 0.0965074
2225 5 0.03 0.190956 0.650145 0.0965074
2226 5 0.03 0.152765 0.629506 0.0965074
2229 5 0.03 0.267338 0.650145 0.0965074
2230 5 0.03 0.229147 0.629506 0.0965074
2234 5 0.03 0.305529 0.629506 0.0965074
1975 5 0.03 0.381912 0.340552 0.0965074
1979 5 0.03 0.458294 0.340552 0.0965074
1983 5 0.03 0.534677 0.340552 0.0965074
1987 5 0.03 0.611059 0.340552 0.0965074
2025 5 0.03 0.343721 0.402471 0.0965074
2029 5 0.03 0.420103 0.402471 0.0965074
2030 5 0.03 0.381912 0.381831 0.0965074
2033 5 0.03 0.496485 0.402471 0.0965074
2034 5 0.03 0.458294 0.381831 0.0965074
2037 5 0.03 0.572868 0.402471 0.0965074
2038 5 0.03 0.534677 0.381831 0.0965074
2041 5 0.03 0.64925 0.402471 0.0965074
2042 5 0.03 0.611059 0.381831 0.0965074
2079 5 0.03 0.381912 0.46439 0.0965074
2080 5 0.03 0.343721 0.44375 0.0965074
2083 5 0.03 0.458294 0.46439 0.0965074
2084 5 0.03 0.420103 0.44375 0.0965074
2087 5 0.03 0.534677 0.46439 0.0965074
2088 5 0.03 0.496485 0.44375 0.0965074
2091 5 0.03 0.611059 0.46439 0.0965074
2092 5 0.03 0.572868 0.44375 0.0965074
2096 5 0.03 0.64925 0.44375 0.0965074
2129 5 0.03 0.343721 0.526308 0.0965074
2133 5 0.03 0.420103 0.526308 0.0965074
2134 5 0.03 0.381912 0.505669 0.0965074
2137 5 0.03 0.496485 0.526308 0.0965074
2138 5 0.03 0.458294 0.505669 0.0965074
2141 5 0.03 0.572868 0.526308 0.0965074
2142 5 0.03 0.534677 0.505669 0.0965074
2145 5 0.03 0.64925 0.526308 0.0965074
2146 5 0.03 0.611059 0.505669 0.0965074
2183 5 0.03 0.381912 0.588227 0.0965074
2184 5 0.03 0.343721 0.567587 0.0965074
2187 5 0.03 0.458294 0.588227 0.0965074
2188 5 0.03 0.420103 0.567587 0.0965074
2191 5 0.03 0.534677 0.588227 0.0965074
2192 5 0.03 0.496485 0.567587 0.0965074
2195 5 0.03 0.611059 0.588227 0.0965074
2196 5 0.03 0.572868 0.567587 0.0965074
2200 5 0.03 0.64925 0.567587 0.0965074
2233 5 0.03 0.343721 0.650145 0.0965074
2237 5 0.03 0.420103 0.650145 0.0965074
2238 5 0.03 0.381912 0.629506 0.0965074
2241 5 0.03 0.496485 0.650145 0.0965074
2242 5 0.03 0.458294 0.629506 0.0965074
2245 5 0.03 0.572868 0.650145 0.0965074
2246 5 0.03 0.534677 0.629506 0.0965074
2249 5 0.03 0.64925 0.650145 0.0965074
2250 5 0.03 0.611059 0.629506 0.0965074
1991 5 0.03 0.687441 0.340552 0.0965074
1995 5 0.03 0.763824 0.340552 0.0965074
1999 5 0.03 0.840206 0.340552 0.0965074
2003 5 0.03 0.916588 0.340552 0.0965074
2007 5 0.03 0.992971 0.340552 0.0965074
2045 5 0.03 0.725632 0.402471 0.0965074
2046 5 0.03 0.687441 0.381831 0.0965074
2049 5 0.03 0.802015 0.402471 0.0965074
2050 5 0.03 0.763824 0.381831 0.0965074
2053 5 0.03 0.878397 0.402471 0.0965074
2054 5 0.03 0.840206 0.381831 0.0965074
2057 5 0.03 0.95478 0.402471 0.0965074
2058 5 0.03 0.916588 0.381831 0.0965074
2060 5 0.03 0.992971 0.381831 0.0965074
2095 5 0.03 0.687441 0.46439 0.0965074
2099 5 0.03 0.763824 0.46439 0.0965074
2100 5 0.03 0.725632 0.44375 0.0965074
2103 5 0.03 0.840206 0.46439 0.0965074
2104 5 0.03 0.802015 0.44375 0.0965074
2107 5 0.03 0.916588 0.46439 0.0965074
2108 5 0.03 0.878397 0.44375 0.0965074
2111 5 0.03 0.992971 0.46439 0.0965074
2112 5 0.03 0.95478 0.44375 0.0965074
2149 5 0.03 0.725632 0.526308 0.0965074
2150 5 0.03 0.687441 0.505669 0.0965074
2153 5 0.03 0.802015 0.526308 0.0965074
2154 5 0.03 0.763824 0.505669 0.0965074
2157 5 0.03 0.878397 0.526308 0.0965074
2158 5 0.03 0.840206 0.505669 0.0965074
2161 5 0.03 0.95478 0.526308 0.0965074
2162 5 0.03 0.916588 0.505669 0.0965074
2164 5 0.03 0.992971 0.505669 0.0965074
2199 5 0.03 0.687441 0.588227 0.0965074
2203 5 0.03 0.763824 0.588227 0.0965074
2204 5 0.03 0.725632 0.567587 0.0965074
2207 5 0.03 0.840206 0.588227 0.0965074
2208 5 0.03 0.802015 0.567587 0.0965074
2211 5 0.03 0.916588 0.588227 0.0965074
2212 5 0.03 0.878397 0.567587 0.0965074
2215 5 0.03 0.992971 0.588227 0.0965074
2216 5 0.03 0.95478 0.567587 0.0965074
2253 5 0.03 0.725632 0.650145 0.0965074
2254 5 0.03 0.687441 0.629506 0.0965074
2257 5 0.03 0.802015 0.650145 0.0965074
2258 5 0.03 0.763824 0.629506 0.0965074
2261 5 0.03 0.878397 0.650145 0.0965074
2262 5 0.03 0.840206 0.629506 0.0965074
2265 5 0.03 0.95478 0.650145 0.0965074
2266 5 0.03 0.916588 0.629506 0.0965074
2268 5 0.03 0.992971 0.629506 0.0965074
2271 5 0.03 0.0763824 0.712064 0.0965074
2272 5 0.03 0.0381912 0.691424 0.0965074
2275 5 0.03 0.152765 0.712064 0.0965074
2276 5 0.03 0.114574 0.691424 0.0965074
2279 5 0.03 0.229147 0.712064 0.0965074
2280 5 0.03 0.190956 0.691424 0.0965074
2283 5 0.03 0.305529 0.712064 0.0965074
2284 5 0.03 0.267338 0.691424 0.0965074
2322 5 0.03 0.0381912 0.773983 0.0965074
2325 5 0.03 0.114574 0.773983 0.0965074
2326 5 0.03 0.0763824 0.753343 0.0965074
2329 5 0.03 0.190956 0.773983 0.0965074
2330 5 0.03 0.152765 0.753343 0.0965074
2333 5 0.03 0.267338 0.773983 0.0965074
2334 5 0.03 0.229147 0.753343 0.0965074
2338 5 0.03 0.305529 0.753343 0.0965074
2375 5 0.03 0.0763824 0.835901 0.0965074
2376 5 0.03 0.0381912 0.815262 0.0965074
2379 5 0.03 0.152765 0.835901 0.0965074
2380 5 0.03 0.114574 0.815262 0.0965074
2383 5 0.03 0.229147 0.835901 0.0965074
2384 5 0.03 0.190956 0.815262 0.0965074
2387 5 0.03 0.305529 0.835901 0.0965074
2388 5 0.03 0.267338 0.815262 0.0965074
2426 5 0.03 0.0381912 0.89782 0.0965074
2429 5 0.03 0.114574 0.89782 0.0965074
2430 5 0.03 0.0763824 0.87718 0.0965074
2433 5 0.03 0.190956 0.89782 0.0965074
2434 5 0.03 0.152765 0.87718 0.0965074
2437 5 0.03 0.267338 0.89782 0.0965074
2438 5 0.03 0.229147 0.87718 0.0965074
2442 5 0.03 0.305529 0.87718 0.0965074
2479 5 0.03 0.0763824 0.959738 0.0965074
2480 5 0.03 0.0381912 0.939099 0.0965074
2483 5 0.03 0.152765 0.959738 0.0965074
2484 5 0.03 0.114574 0.939099 0.0965074
2487 5 0.03 0.229147 0.959738 0.0965074
2488 5 0.03 0.190956 0.939099 0.0965074
2491 5 0.03 0.305529 0.959738 0.0965074
2492 5 0.03 0.267338 0.939099 0.0965074
2287 5 0.03 0.381912 0.712064 0.0965074
2288 5 0.03 0.343721 0.691424 0.0965074
2291 5 0.03 0.458294 0.712064 0.0965074
2292 5 0.03 0.420103 0.691424 0.0965074
2295 5 0.03 0.534677 0.712064 0.0965074
2296 5 0.03 0.496485 0.691424 0.0965074
2299 5 0.03 0.611059 0.712064 0.0965074
2300 5 0.03 0.572868 0.691424 0.0965074
2304 5 0.03 0.64925 0.691424 0.0965074
2337 5 0.03 0.343721 0.773983 0.0965074
2341 5 0.03 0.420103 0.773983 0.0965074
2342 5 0.03 0.381912 0.753343 0.0965074
2345 5 0.03 0.496485 0.773983 0.0965074
2346 5 0.03 0.458294 0.753343 0.0965074
2349 5 0.03 0.572868 0.773983 0.0965074
2350 5 0.03 0.534677 0.753343 0.0965074
2353 5 0.03 0.64925 0.773983 0.0965074
2354 5 0.03 0.611059 0.753343 0.0965074
2391 5 0.03 0.381912 0.835901 0.0965074
2392 5 0.03 0.343721 0.815262 0.0965074
2395 5 0.03 0.458294 0.835901 0.0965074
2396 5 0.03 0.420103 0.815262 0.0965074
2399 5 0.03 0.534677 0.835901 0.0965074
2400 5 0.03 0.496485 0.815262 0.0965074
2403 5 0.03 0.611059 0.835901 0.0965074
2404 5 0.03 0.572868 0.815262 0.0965074
2408 5 0.03 0.64925 0.815262 0.0965074
2441 5 0.03 0.343721 0.89782 0.0965074
2445 5 0.03 0.420103 0.89782 0.0965074
2446 5 0.03 0.381912 0.87718 0.0965074
2449 5 0.03 0.496485 0.89782 0.0965074
2450 5 0.03 0.458294 0.87718 0.0965074
2453 5 0.03 0.572868 0.89782 0.0965074
2454 5 0.03 0.534677 0.87718 0.0965074
2457 5 0.03 0.64925 0.89782 0.0965074
2458 5 0.03 0.611059 0.87718 0.0965074
2495 5 0.03 0.381912 0.959738 0.0965074
2496 5 0.03 0.343721 0.939099 0.0965074
2499 5 0.03 0.458294 0.959738 0.0965074
2500 5 0.03 0.420103 0.939099 0.0965074
2503 5 0.03 0.534677 0.959738 0.0965074
2504 5 0.03 0.496485 0.939099 0.0965074
2507 5 0.03 0.611059 0.959738 0.0965074
2508 5 0.03 0.572868 0.939099 0.0965074
2512 5 0.03 0.64925 0.939099 0.0965074
2303 5 0.03 0.687441 0.712064 0.0965074
2307 5 0.03 0.763824 0.712064 0.0965074
2308 5 0.03 0.725632 0.691424 0.0965074
2311 5 0.03 0.840206 0.712064 0.0965074
2312 5 0.03 0.802015 0.691424 0.0965074
2315 5 0.03 0.916588 0.712064 0.0965074
2316 5 0.03 0.878397 0.691424 0.0965074
2319 5 0.03 0.992971 0.712064 0.0965074
2320 5 0.03 0.95478 0.691424 0.0965074
2357 5 0.03 0.725632 0.773983 0.0965074
2358 5 0.03 0.687441 0.753343 0.0965074
2361 5 0.03 0.802015 0.773983 0.0965074
2362 5 0.03 0.763824 0.753343 0.0965074
2365 5 0.03 0.878397 0.773983 0.0965074
2366 5 0.03 0.840206 0.753343 0.0965074
2369 5 0.03 0.95478 0.773983 0.0965074
2370 5 0.03 0.916588 0.753343 0.0965074
2372 5 0.03 0.992971 0.753343 0.0965074
2407 5 0.03 0.687441 0.835901 0.0965074
2411 5 0.03 0.763824 0.835901 0.0965074
2412 5 0.03 0.725632 0.815262 0.0965074
2415 5 0.03 0.840206 0.835901 0.0965074
2416 5 0.03 0.802015 0.815262 0.0965074
2419 5 0.03 0.916588 0.835901 0.0965074
2420 5 0.03 0.878397 0.815262 0.0965074
2423 5 0.03 0.992971 0.835901 0.0965074
2424 5 0.03 0.95478 0.815262 0.0965074
2461 5 0.03 0.725632 0.89782 0.0965074
2462 5 0.03 0.687441 0.87718 0.0965074
2465 5 0.03 0.802015 0.89782 0.0965074
2466 5 0.03 0.763824 0.87718 0.0965074
2469 5 0.03 0.878397 0.89782 0.0965074
2470 5 0.03 0.840206 0.87718 0.0965074
2473 5 0.03 0.95478 0.89782 0.0965074
2474 5 0.03 0.916588 0.87718 0.0965074
2476 5 0.03 0.992971 0.87718 0.0965074
2511 5 0.03 0.687441 0.959738 0.0965074
2515 5 0.03 0.763824 0.959738 0.0965074
2516 5 0.03 0.725632 0.939099 0.0965074
2519 5 0.03 0.840206 0.959738 0.0965074
2520 5 0.03 0.802015 0.939099 0.0965074
2523 5 0.03 0.916588 0.959738 0.0965074
2524 5 0.03 0.878397 0.939099 0.0965074
2527 5 0.03 0.992971 0.959738 0.0965074
2528 5 0.03 0.95478 0.939099 0.0965074
ITEM: TIMESTEP
5000
ITEM: NUMBER OF ATOMS
416
ITEM: BOX BOUNDS pp pp pp
0.0000000000000000e+00 3.2200000000000003e+01
0.0000000000000000e+00 3.4399999999999999e+01
-6.8000000000000000e+01 6.8000000000000000e+01
ITEM: ATOMS id type q xs ys zs
1698 5 0.03 0.0381912 0.0309593 0.0965074
1701 5 0.03 0.114574 0.0309593 0.0965074
1702 5 0.03 0.0763824 0.0103198 0.0965074
1705 5 0.03 0.190956 0.0309593 0.0965074
1706 5 0.03 0.152765 0.0103198 0.0965074
1709 5 0.03 0.267338 0.0309593 0.0965074
1710 5 0.03 0.229147 0.0103198 0.0965074
1714 5 0.03 0.305529 0.0103198 0.0965074
1751 5 0.03 0.0763824 0.0928779 0.0965074
1752 5 0.03 0.0381912 0.0722384 0.0965074
1755 5 0.03 0.152765 0.0928779 0.0965074
1756 5 0.03 0.114574 0.0722384 0.0965074
1759 5 0.03 0.229147 0.0928779 0.0965074
1760 5 0.03 0.190956 0.0722384 0.0965074
1763 5 0.03 0.305529 0.0928779 0.0965074
1764 5 0.03 0.267338 0.0722384 0.0965074
1802 5 0.03 0.0381912 0.154797 0.0965074
1805 5 0.03 0.114574 0.154797 0.0965074
1806 5 0.03 0.0763824 0.134157 0.0965074
1809 5 0.03 0.190956 0.154797 0.0965074
1810 5 0.03 0.152765 0.134157 0.0965074
1813 5 0.03 0.267338 0.154797 0.0965074
1814 5 0.03 0.229147 0.134157 0.0965074
1818 5 0.03 0.305529 0.134157 0.0965074
1855 5 0.03 0.0763824 0.216715 0.0965074
1856 5 0.03 0.0381912 0.196076 0.0965074
1859 5 0.03 0.152765 0.216715 0.0965074
1860 5 0.03 0.114574 0.196076 0.0965074
1863 5 0.03 0.229147 0.216715 0.0965074
1864 5 0.03 0.190956 0.196076 0.0965074
1867 5 0.03 0.305529 0.216715 0.0965074
1868 5 0.03 0.267338 0.196076 0.0965074
1906 5 0.03 0.0381912 0.278634 0.0965074
1909 5 0.03 0.114574 0.278634 0.0965074
1910 5 0.03 0.0763824 0.257994 0.0965074
1913 5 0.03 0.190956 0.278634 0.0965074
1914 5 0.03 0.152765 0.257994 0.0965074
1917 5 0.03 0.267338 0.278634 0.0965074
1918 5 0.03 0.229147 0.257994 0.0965074
1922 5 0.03 0.305529 0.257994 0.0965074
1960 5 0.03 0.0381912 0.319913 0.0965074
1964 5 0.03 0.114574 0.319913 0.0965074
1968 5 0.03 0.190956 0.319913 0.0965074
1972 5 0.03 0.267338 0.319913 0.0965074
1713 5 0.03 0.343721 0.0309593 0.0965074
1717 5 0.03 0.420103 0.0309593 0.0965074
1718 5 0.03 0.381912 0.0103198 0.0965074
1721 5 0.03 0.496485 0.0309593 0.0965074
1722 5 0.03 0.458294 0.0103198 0.0965074
1725 5 0.03 0.572868 0.0309593 0.0965074
1726 5 0.03 0.534677 0.0103198 0.0965074
1729 5 0.03 0.64925 0.0309593 0.0965074
1730 5 0.03 0.611059 0.0103198 0.0965074
1767 5 0.03 0.381912 0.0928779 0.0965074
1768 5 0.03 0.343721 0.0722384 0.0965074
1771 5 0.03 0.458294 0.0928779 0.0965074
1772 5 0.03 0.420103 0.0722384 0.0965074
1775 5 0.03 0.534677 0.0928779 0.0965074
1776 5 0.03 0.496485 0.0722384 0.0965074
1779 5 0.03 0.611059 0.0928779 0.0965074
1780 5 0.03 0.572868 0.0722384 0.0965074
1784 5 0.03 0.64925 0.0722384 0.0965074
1817 5 0.03 0.343721 0.154797 0.0965074
1821 5 0.03 0.420103 0.154797 0.0965074
1822 5 0.03 0.381912 0.134157 0.0965074
1825 5 0.03 0.496485 0.154797 0.0965074
1826 5 0.03 0.458294 0.134157 0.0965074
1829 5 0.03 0.572868 0.154797 0.0965074
1830 5 0.03 0.534677 0.134157 0.0965074
1833 5 0.03 0.64925 0.154797 0.0965074
1834 5 0.03 0.611059 0.134157 0.0965074
1871 5 0.03 0.381912 0.216715 0.0965074
1872 5 0.03 0.343721 0.196076 0.0965074
1875 5 0.03 0.458294 0.216715 0.0965074
1876 5 0.03 0.420103 0.196076 0.0965074
1879 5 0.03 0.534677 0.216715 0.0965074
1880 5 0.03 0.496485 0.196076 0.0965074
1883 5 0.03 0.611059 0.216715 0.0965074
1884 5 0.03 0.572868 0.196076 0.0965074
1888 5 0.03 0.64925 0.196076 0.0965074
1921 5 0.03 0.343721 0.278634 0.0965074
1925 5 0.03 0.420103 0.278634 0.0965074
1926 5 0.03 0.381912 0.257994 0.0965074
1929 5 0.03 0.496485 0.278634 0.0965074
1930 5 0.03 0.458294 0.257994 0.0965074
1933 5 0.03 0.572868 0.278634 0.0965074
1934 5 0.03 0.534677 0.257994 0.0965074
1937 5 0.03 0.64925 0.278634 0.0965074
1938 5 0.03 0.611059 0.257994 0.0965074
1976 5 0.03 0.343721 0.319913 0.0965074
1980 5 0.03 0.420103 0.319913 0.0965074
1984 5 0.03 0.496485 0.319913 0.0965074
1988 5 0.03 0.572868 0.319913 0.0965074
1992 5 0.03 0.64925 0.319913 0.0965074
1733 5 0.03 0.725632 0.0309593 0.0965074
1734 5 0.03 0.687441 0.0103198 0.0965074
1737 5 0.03 0.802015 0.0309593 0.0965074
1738 5 0.03 0.763824 0.0103198 0.0965074
1741 5 0.03 0.878397 0.0309593 0.0965074
1742 5 0.03 0.840206 0.0103198 0.0965074
1745 5 0.03 0.95478 0.0309593 0.0965074
1746 5 0.03 0.916588 0.0103198 0.0965074
1748 5 0.03 0.992971 0.0103198 0.0965074
1783 5 0.03 0.687441 0.0928779 0.0965074
1787 5 0.03 0.763824 0.0928779 0.0965074
1788 5 0.03 0.725632 0.0722384 0.0965074
1791 5 0.03 0.840206 0.0928779 0.0965074
1792 5 0.03 0.802015 0.0722384 0.0965074
1795 5 0.03 0.916588 0.0928779 0.0965074
1796 5 0.03 0.878397 0.0722384 0.0965074
1799 5 0.03 0.992971 0.0928779 0.0965074
1800 5 0.03 0.95478 0.0722384 0.0965074
1837 5 0.03 0.725632 0.154797 0.0965074
1838 5 0.03 0.687441 0.134157 0.0965074
1841 5 0.03 0.802015 0.154797 0.0965074
1842 5 0.03 0.763824 0.134157 0.0965074
1845 5 0.03 0.878397 0.154797 0.0965074
1846 5 0.03 0.840206 0.134157 0.0965074
1849 5 0.03 0.95478 0.154797 0.0965074
1850 5 0.03 0.916588 0.134157 0.0965074
1852 5 0.03 0.992971 0.134157 0.0965074
1887 5 0.03 0.687441 0.216715 0.0965074
1891 5 0.03 0.763824 0.216715 0.0965074
1892 5 0.03 0.725632 0.196076 0.0965074
1895 5 0.03 0.840206 0.216715 0.0965074
1896 5 0.03 0.802015 0.196076 0.0965074
1899 5 0.03 0.916588 0.216715 0.0965074
1900 5 0.03 0.878397 0.196076 0.0965074
1903 5 0.03 0.992971 0.216715 0.0965074
1904 5 0.03 0.95478 0.196076 0.0965074
1941 5 0.03 0.725632 0.278634 0.0965074
1942 5 0.03 0.687441 0.257994 0.0965074
1945 5 0.03 0.802015 0.278634 0.0965074
1946 5 0.03 0.763824 0.257994 0.0965074
1949 5 0.03 0.878397 0.278634 0.0965074
1950 5 0.03 0.840206 0.257994 0.0965074
1953 5 0.03 0.95478 0.278634 0.0965074
1954 5 0.03 0.916588 0.257994 0.0965074
1956 5 0.03 0.992971 0.257994 0.0965074
1996 5 0.03 0.725632 0.319913 0.0965074
2000 5 0.03 0.802015 0.319913 0.0965074
2004 5 0.03 0.878397 0.319913 0.0965074
2008 5 0.03 0.95478 0.319913 0.0965074
1959 5 0.03 0.0763824 0.340552 0.0965074
1963 5 0.03 0.152765 0.340552 0.0965074
1967 5 0.03 0.229147 0.340552 0.0965074
1971 5 0.03 0.305529 0.340552 0.0965074
2010 5 0.03 0.0381912 0.402471 0.0965074
2013 5 0.03 0.114574 0.402471 0.0965074
2014 5 0.03 0.0763824 0.381831 0.0965074
2017 5 0.03 0.190956 0.402471 0.0965074
2018 5 0.03 0.152765 0.381831 0.0965074
2021 5 0.03 0.267338 0.402471 0.0965074
2022 5 0.03 0.229147 0.381831 0.0965074
2026 5 0.03 0.305529 0.381831 0.0965074
2063 5 0.03 0.0763824 0.46439 0.0965074
2064 5 0.03 0.0381912 0.44375 0.0965074
2067 5 0.03 0.152765 0.46439 0.0965074
2068 5 0.03 0.114574 0.44375 0.0965074
2071 5 0.03 0.229147 0.46439 0.0965074
2072 5 0.03 0.190956 0.44375 0.0965074
2075 5 0.03 0.305529 0.46439 0.0965074
2076 5 0.03 0.267338 0.44375 0.0965074
2114 5 0.03 0.0381912 0.526308 0.0965074
2117 5 0.03 0.114574 0.526308 0.0965074
2118 5 0.03 0.0763824 0.505669 0.0965074
2121 5 0.03 0.190956 0.526308 0.0965074
2122 5 0.03 0.152765 0.505669 0.0965074
2125 5 0.03 0.267338 0.526308 0.0965074
2126 5 0.03 0.229147 0.505669 0.0965074
2130 5 0.03 0.305529 0.505669 0.0965074
2167 5 0.03 0.0763824 0.588227 0.0965074
2168 5 0.03 0.0381912 0.567587 0.0965074
2171 5 0.03 0.152765 0.588227 0.0965074
2172 5 0.03 0.114574 0.567587 0.0965074
2175 5 0.03 0.229147 0.588227 0.0965074
2176 5 0.03 0.190956 0.567587 0.0965074
2179 5 0.03 0.305529 0.588227 0.0965074
2180 5 0.03 0.267338 0.567587 0.0965074
2218 5 0.03 0.0381912 0.650145 0.0965074
2221 5 0.03 0.114574 0.650145 0.0965074
2222 5 0.03 0.0763824 0.629506 0.0965074
2225 5 0.03 0.190956 0.650145 0.0965074
2226 5 0.03 0.152765 0.629506 0.0965074
2229 5 0.03 0.267338 0.650145 0.0965074
2230 5 0.03 0.229147 0.629506 0.0965074
2234 5 0.03 0.305529 0.629506 0.0965074
1975 5 0.03 0.381912 0.340552 0.0965074
1979 5 0.03 0.458294 0.340552 0.0965074
1983 5 0.03 0.534677 0.340552 0.0965074
1987 5 0.03 0.611059 0.340552 0.0965074
2025 5 0.03 0.343721 0.402471 0.0965074
2029 5 0.03 0.420103 0.402471 0.0965074
2030 5 0.03 0.381912 0.381831 0.0965074
2033 5 0.03 0.496485 0.402471 0.0965074
2034 5 0.03 0.458294 0.381831 0.0965074
2037 5 0.03 0.572868 0.402471 0.0965074
2038 5 0.03 0.534677 0.381831 0.0965074
2041 5 0.03 0.64925 0.402471 0.0965074
2042 5 0.03 0.611059 0.381831 0.0965074
2079 5 0.03 0.381912 0.46439 0.0965074
2080 5 0.03 0.343721 0.44375 0.0965074
2083 5 0.03 0.458294 0.46439 0.0965074
2084 5 0.03 0.420103 0.44375 0.0965074
2087 5 0.03 0.534677 0.46439 0.0965074
2088 5 0.03 0.496485 0.44375 0.0965074
2091 5 0.03 0.611059 0.46439 0.0965074
2092 5 0.03 0.572868 0.44375 0.0965074
2096 5 0.03 0.64925 0.44375 0.0965074
2129 5 0.03 0.343721 0.526308 0.0965074
2133 5 0.03 0.420103 0.526308 0.0965074
2134 5 0.03 0.381912 0.505669 0.0965074
2137 5 0.03 0.496485 0.526308 0.0965074
2138 5 0.03 0.458294 0.505669 0.0965074
2141 5 0.03 0.572868 0.526308 0.0965074
2142 5 0.03 0.534677 0.505669 0.0965074
2145 5 0.03 0.64925 0.526308 0.0965074
2146 5 0.03 0.611059 0.505669 0.0965074
2183 5 0.03 0.381912 0.588227 0.0965074
2184 5 0.03 0.343721 0.567587 0.0965074
2187 5 0.03 0.458294 0.588227 0.0965074
2188 5 0.03 0.420103 0.567587 0.0965074
2191 5 0.03 0.534677 0.588227 0.0965074
2192 5 0.03 0.496485 0.567587 0.0965074
2195 5 0.03 0.611059 0.588227 0.0965074
2196 5 0.03 0.572868 0.567587 0.0965074
2200 5 0.03 0.64925 0.567587 0.0965074
2233 5 0.03 0.343721 0.650145 0.0965074
2237 5 0.03 0.420103 0.650145 0.0965074
2238 5 0.03 0.381912 0.629506 0.0965074
2241 5 0.03 0.496485 0.650145 0.0965074
2242 5 0.03 0.458294 0.629506 0.0965074
2245 5 0.03 0.572868 0.650145 0.0965074
2246 5 0.03 0.534677 0.629506 0.0965074
2249 5 0.03 0.64925 0.650145 0.0965074
2250 5 0.03 0.611059 0.629506 0.0965074
1991 5 0.03 0.687441 0.340552 0.0965074
1995 5 0.03 0.763824 0.340552 0.0965074
1999 5 0.03 0.840206 0.340552 0.0965074
2003 5 0.03 0.916588 0.340552 0.0965074
2007 5 0.03 0.992971 0.340552 0.0965074
2045 5 0.03 0.725632 0.402471 0.0965074
2046 5 0.03 0.687441 0.381831 0.0965074
2049 5 0.03 0.802015 0.402471 0.0965074
2050 5 0.03 0.763824 0.381831 0.0965074
2053 5 0.03 0.878397 0.402471 0.0965074
2054 5 0.03 0.840206 0.381831 0.0965074
2057 5 0.03 0.95478 0.402471 0.0965074
2058 5 0.03 0.916588 0.381831 0.0965074
2060 5 0.03 0.992971 0.381831 0.0965074
2095 5 0.03 0.687441 0.46439 0.0965074
2099 5 0.03 0.763824 0.46439 0.0965074
2100 5 0.03 0.725632 0.44375 0.0965074
2103 5 0.03 0.840206 0.46439 0.0965074
2104 5 0.03 0.802015 0.44375 0.0965074
2107 5 0.03 0.916588 0.46439 0.0965074
2108 5 0.03 0.878397 0.44375 0.0965074
2111 5 0.03 0.992971 0.46439 0.0965074
2112 5 0.03 0.95478 0.44375 0.0965074
2149 5 0.03 0.725632 0.526308 0.0965074
2150 5 0.03 0.687441 0.505669 0.0965074
2153 5 0.03 0.802015 0.526308 0.0965074
2154 5 0.03 0.763824 0.505669 0.0965074
2157 5 0.03 0.878397 0.526308 0.0965074
2158 5 0.03 0.840206 0.505669 0.0965074
2161 5 0.03 0.95478 0.526308 0.0965074
2162 5 0.03 0.916588 0.505669 0.0965074
2164 5 0.03 0.992971 0.505669 0.0965074
2199 5 0.03 0.687441 0.588227 0.0965074
2203 5 0.03 0.763824 0.588227 0.0965074
2204 5 0.03 0.725632 0.567587 0.0965074
2207 5 0.03 0.840206 0.588227 0.0965074
2208 5 0.03 0.802015 0.567587 0.0965074
2211 5 0.03 0.916588 0.588227 0.0965074
2212 5 0.03 0.878397 0.567587 0.0965074
2215 5 0.03 0.992971 0.588227 0.0965074
2216 5 0.03 0.95478 0.567587 0.0965074
2253 5 0.03 0.725632 0.650145 0.0965074
2254 5 0.03 0.687441 0.629506 0.0965074
2257 5 0.03 0.802015 0.650145 0.0965074
2258 5 0.03 0.763824 0.629506 0.0965074
2261 5 0.03 0.878397 0.650145 0.0965074
2262 5 0.03 0.840206 0.629506 0.0965074
2265 5 0.03 0.95478 0.650145 0.0965074
2266 5 0.03 0.916588 0.629506 0.0965074
2268 5 0.03 0.992971 0.629506 0.0965074
2271 5 0.03 0.0763824 0.712064 0.0965074
2272 5 0.03 0.0381912 0.691424 0.0965074
2275 5 0.03 0.152765 0.712064 0.0965074
2276 5 0.03 0.114574 0.691424 0.0965074
2279 5 0.03 0.229147 0.712064 0.0965074
2280 5 0.03 0.190956 0.691424 0.0965074
2283 5 0.03 0.305529 0.712064 0.0965074
2284 5 0.03 0.267338 0.691424 0.0965074
2322 5 0.03 0.0381912 0.773983 0.0965074
2325 5 0.03 0.114574 0.773983 0.0965074
2326 5 0.03 0.0763824 0.753343 0.0965074
2329 5 0.03 0.190956 0.773983 0.0965074
2330 5 0.03 0.152765 0.753343 0.0965074
2333 5 0.03 0.267338 0.773983 0.0965074
2334 5 0.03 0.229147 0.753343 0.0965074
2338 5 0.03 0.305529 0.753343 0.0965074
2375 5 0.03 0.0763824 0.835901 0.0965074
2376 5 0.03 0.0381912 0.815262 0.0965074
2379 5 0.03 0.152765 0.835901 0.0965074
2380 5 0.03 0.114574 0.815262 0.0965074
2383 5 0.03 0.229147 0.835901 0.0965074
2384 5 0.03 0.190956 0.815262 0.0965074
2387 5 0.03 0.305529 0.835901 0.0965074
2388 5 0.03 0.267338 0.815262 0.0965074
2426 5 0.03 0.0381912 0.89782 0.0965074
2429 5 0.03 0.114574 0.89782 0.0965074
2430 5 0.03 0.0763824 0.87718 0.0965074
2433 5 0.03 0.190956 0.89782 0.0965074
2434 5 0.03 0.152765 0.87718 0.0965074
2437 5 0.03 0.267338 0.89782 0.0965074
2438 5 0.03 0.229147 0.87718 0.0965074
2442 5 0.03 0.305529 0.87718 0.0965074
2479 5 0.03 0.0763824 0.959738 0.0965074
2480 5 0.03 0.0381912 0.939099 0.0965074
2483 5 0.03 0.152765 0.959738 0.0965074