ITEM: TIMESTEP
0
ITEM: NUMBER OF ATOMS
416
ITEM: BOX BOUNDS pp pp ff
0.0000000000000000e+00 3.2200000000000003e+01
0.0000000000000000e+00 3.4399999999999999e+01
-6.8000000000000000e+01 6.8000000000000000e+01
ITEM: ATOMS id type q xs ys zs
2529 5 0.000205173 0.0381912 0.0309593 0.903493
2530 5 0.000994722 0.114574 0.0309593 0.903493
2531 5 0.000536416 0.0763824 0.0103198 0.903493
2532 5 0.00795471 0.190956 0.0309593 0.903493
2533 5 0.0021226 0.152765 0.0103198 0.903493
2534 5 0.00776688 0.267338 0.0309593 0.903493
2535 5 0.00794304 0.229147 0.0103198 0.903493
2537 5 0.000761106 0.305529 0.0103198 0.903493
2555 5 -0.0029017 0.0763824 0.0928779 0.903493
2556 5 0.000772368 0.0381912 0.0722384 0.903493
2557 5 -0.000889483 0.152765 0.0928779 0.903493
2558 5 -0.00153585 0.114574 0.0722384 0.903493
2559 5 0.00554417 0.229147 0.0928779 0.903493
2560 5 0.00710495 0.190956 0.0722384 0.903493
2561 5 -0.00171239 0.305529 0.0928779 0.903493
2562 5 0.00610637 0.267338 0.0722384 0.903493
2581 5 0.000287298 0.0381912 0.154797 0.903493
2582 5 -0.0123187 0.114574 0.154797 0.903493
2583 5 -0.00650785 0.0763824 0.134157 0.903493
2584 5 -0.00640271 0.190956 0.154797 0.903493
2585 5 -0.0076212 0.152765 0.134157 0.903493
2586 5 -0.00920027 0.267338 0.154797 0.903493
2587 5 -0.00257843 0.229147 0.134157 0.903493
2589 5 -0.00855316 0.305529 0.134157 0.903493
2607 5 -0.00678447 0.0763824 0.216715 0.903493
2608 5 -0.00213811 0.0381912 0.196076 0.903493
2609 5 -0.00661251 0.152765 0.216715 0.903493
2610 5 -0.0106674 0.114574 0.196076 0.903493
2611 5 -0.00442586 0.229147 0.216715 0.903493
2612 5 -0.00686627 0.190956 0.196076 0.903493
2613 5 -0.00965218 0.305529 0.216715 0.903493
2614 5 -0.0102811 0.267338 0.196076 0.903493
2633 5 -0.000341758 0.0381912 0.278634 0.903493
2634 5 -0.0004329 0.114574 0.278634 0.903493
2635 5 -0.00338779 0.0763824 0.257994 0.903493
2636 5 0.00609258 0.190956 0.278634 0.903493
2637 5 -0.000771501 0.152765 0.257994 0.903493
2638 5 0.00709909 0.267338 0.278634 0.903493
2639 5 0.00372523 0.229147 0.257994 0.903493
2641 5 -0.000949494 0.305529 0.257994 0.903493
2660 5 0.00595612 0.0381912 0.319913 0.903493
2662 5 0.00282765 0.114574 0.319913 0.903493
2664 5 0.0100041 0.190956 0.319913 0.903493
2666 5 0.0125536 0.267338 0.319913 0.903493
2536 5 -0.00420558 0.343721 0.0309593 0.903493
2538 5 -0.00680868 0.420103 0.0309593 0.903493
2539 5 -0.00843856 0.381912 0.0103198 0.903493
2540 5 -0.0001615 0.496485 0.0309593 0.903493
2541 5 -0.00538039 0.458294 0.0103198 0.903493
2542 5 -0.0013797 0.572868 0.0309593 0.903493
2543 5 -0.00217523 0.534677 0.0103198 0.903493
2544 5 -0.000343826 0.64925 0.0309593 0.903493
2545 5 -0.00400637 0.611059 0.0103198 0.903493
2563 5 -0.00516745 0.381912 0.0928779 0.903493
2564 5 -0.00480343 0.343721 0.0722384 0.903493
2565 5 0.00657728 0.458294 0.0928779 0.903493
2566 5 -0.00330092 0.420103 0.0722384 0.903493
2567 5 0.00989194 0.534677 0.0928779 0.903493
2568 5 0.00727965 0.496485 0.0722384 0.903493
2569 5 0.000948523 0.611059 0.0928779 0.903493
2570 5 0.00252791 0.572868 0.0722384 0.903493
2572 5 0.00072424 0.64925 0.0722384 0.903493
2588 5 -0.010003 0.343721 0.154797 0.903493
2590 5 0.00171836 0.420103 0.154797 0.903493
2591 5 -0.00379665 0.381912 0.134157 0.903493
2592 5 0.0131727 0.496485 0.154797 0.903493
2593 5 0.0101084 0.458294 0.134157 0.903493
2594 5 0.00543388 0.572868 0.154797 0.903493
2595 5 0.0125851 0.534677 0.134157 0.903493
2596 5 -0.00146676 0.64925 0.154797 0.903493
2597 5 0.00154376 0.611059 0.134157 0.903493
2615 5 -0.00535201 0.381912 0.216715 0.903493
2616 5 -0.0103603 0.343721 0.196076 0.903493
2617 5 0.0024905 0.458294 0.216715 0.903493
2618 5 -0.000285553 0.420103 0.196076 0.903493
2619 5 0.00343968 0.534677 0.216715 0.903493
2620 5 0.00686247 0.496485 0.196076 0.903493
2621 5 -0.000446724 0.611059 0.216715 0.903493
2622 5 0.00242436 0.572868 0.196076 0.903493
2624 5 -0.00107823 0.64925 0.196076 0.903493
2640 5 8.71093e-06 0.343721 0.278634 0.903493
2642 5 0.000877423 0.420103 0.278634 0.903493
2643 5 -0.00311576 0.381912 0.257994 0.903493
2644 5 0.00374494 0.496485 0.278634 0.903493
2645 5 0.00166133 0.458294 0.257994 0.903493
2646 5 0.000917618 0.572868 0.278634 0.903493
2647 5 0.00153212 0.534677 0.257994 0.903493
2648 5 0.00480433 0.64925 0.278634 0.903493
2649 5 0.000321328 0.611059 0.257994 0.903493
2668 5 0.00275438 0.343721 0.319913 0.903493
2670 5 0.00498347 0.420103 0.319913 0.903493
2672 5 0.00887291 0.496485 0.319913 0.903493
2674 5 0.00212672 0.572868 0.319913 0.903493
2676 5 0.00461213 0.64925 0.319913 0.903493
2546 5 0.0126688 0.725632 0.0309593 0.903493
2547 5 0.00393567 0.687441 0.0103198 0.903493
2548 5 0.00977009 0.802015 0.0309593 0.903493
2549 5 0.0124409 0.763824 0.0103198 0.903493
2550 5 -0.00725881 0.878397 0.0309593 0.903493
2551 5 -0.00290387 0.840206 0.0103198 0.903493
2552 5 -0.00457259 0.95478 0.0309593 0.903493
2553 5 -0.0119665 0.916588 0.0103198 0.903493
2554 5 -0.00192317 0.992971 0.0103198 0.903493
2571 5 0.00407839 0.687441 0.0928779 0.903493
2573 5 0.0107348 0.763824 0.0928779 0.903493
2574 5 0.0120461 0.725632 0.0722384 0.903493
2575 5 0.00309209 0.840206 0.0928779 0.903493
2576 5 0.00967757 0.802015 0.0722384 0.903493
2577 5 0.00481363 0.916588 0.0928779 0.903493
2578 5 -5.99184e-05 0.878397 0.0722384 0.903493
2579 5 0.00647437 0.992971 0.0928779 0.903493
2580 5 0.00343035 0.95478 0.0722384 0.903493
2598 5 -0.000131896 0.725632 0.154797 0.903493
2599 5 0.000674378 0.687441 0.134157 0.903493
2600 5 -0.00379667 0.802015 0.154797 0.903493
2601 5 0.00170952 0.763824 0.134157 0.903493
2602 5 0.000954714 0.878397 0.154797 0.903493
2603 5 -0.000894842 0.840206 0.134157 0.903493
2604 5 0.011194 0.95478 0.154797 0.903493
2605 5 0.00896038 0.916588 0.134157 0.903493
2606 5 0.00974633 0.992971 0.134157 0.903493
2623 5 0.00150399 0.687441 0.216715 0.903493
2625 5 -0.000359413 0.763824 0.216715 0.903493
2626 5 -0.000153045 0.725632 0.196076 0.903493
2627 5 -0.00515751 0.840206 0.216715 0.903493
2628 5 -0.00568231 0.802015 0.196076 0.903493
2629 5 0.00129225 0.916588 0.216715 0.903493
2630 5 -0.00187645 0.878397 0.196076 0.903493
2631 5 0.00210582 0.992971 0.216715 0.903493
2632 5 0.00587086 0.95478 0.196076 0.903493
2650 5 0.0112663 0.725632 0.278634 0.903493
2651 5 0.00699398 0.687441 0.257994 0.903493
2652 5 0.00312473 0.802015 0.278634 0.903493
2653 5 0.00552623 0.763824 0.257994 0.903493
2654 5 -0.00152546 0.878397 0.278634 0.903493
2655 5 -0.00210122 0.840206 0.257994 0.903493
2656 5 0.0015446 0.95478 0.278634 0.903493
2657 5 -0.0009028 0.916588 0.257994 0.903493
2658 5 0.000497969 0.992971 0.257994 0.903493
2678 5 0.0118466 0.725632 0.319913 0.903493
2680 5 0.00437354 0.802015 0.319913 0.903493
2682 5 8.60326e-05 0.878397 0.319913 0.903493
2684 5 0.00485 0.95478 0.319913 0.903493
2659 5 0.00515193 0.0763824 0.340552 0.903493
2661 5 0.00549685 0.152765 0.340552 0.903493
2663 5 0.0131436 0.229147 0.340552 0.903493
2665 5 0.0065625 0.305529 0.340552 0.903493
2685 5 0.0107253 0.0381912 0.402471 0.903493
2686 5 0.00142209 0.114574 0.402471 0.903493
2687 5 0.00612157 0.0763824 0.381831 0.903493
2688 5 0.00262423 0.190956 0.402471 0.903493
2689 5 0.00317327 0.152765 0.381831 0.903493
2690 5 0.00301771 0.267338 0.402471 0.903493
2691 5 0.0074223 0.229147 0.381831 0.903493
2693 5 0.00223148 0.305529 0.381831 0.903493
2711 5 -0.00472626 0.0763824 0.46439 0.903493
2712 5 0.00318272 0.0381912 0.44375 0.903493
2713 5 -0.00422562 0.152765 0.46439 0.903493
2714 5 -0.00308037 0.114574 0.44375 0.903493
2715 5 0.00183806 0.229147 0.46439 0.903493
2716 5 -0.000750423 0.190956 0.44375 0.903493
2717 5 -0.000550083 0.305529 0.46439 0.903493
2718 5 0.000999999 0.267338 0.44375 0.903493
2737 5 -0.00723329 0.0381912 0.526308 0.903493
2738 5 -0.00938097 0.114574 0.526308 0.903493
2739 5 -0.0105276 0.0763824 0.505669 0.903493
2740 5 0.00192777 0.190956 0.526308 0.903493
2741 5 -0.00499917 0.152765 0.505669 0.903493
2742 5 0.0110123 0.267338 0.526308 0.903493
2743 5 0.00566635 0.229147 0.505669 0.903493
2745 5 0.00537728 0.305529 0.505669 0.903493
2763 5 -0.00482752 0.0763824 0.588227 0.903493
2764 5 -0.0021252 0.0381912 0.567587 0.903493
2765 5 -0.00546085 0.152765 0.588227 0.903493
2766 5 -0.00781696 0.114574 0.567587 0.903493
2767 5 0.00521917 0.229147 0.588227 0.903493
2768 5 0.00123182 0.190956 0.567587 0.903493
2769 5 0.00711459 0.305529 0.588227 0.903493
2770 5 0.0117993 0.267338 0.567587 0.903493
2789 5 0.00419768 0.0381912 0.650145 0.903493
2790 5 -0.0073871 0.114574 0.650145 0.903493
2791 5 -0.00253499 0.0763824 0.629506 0.903493
2792 5 -0.00720794 0.190956 0.650145 0.903493
2793 5 -0.00799701 0.152765 0.629506 0.903493
2794 5 -0.00230831 0.267338 0.650145 0.903493
2795 5 -0.00192386 0.229147 0.629506 0.903493
2797 5 -0.000152271 0.305529 0.629506 0.903493
2667 5 0.00294607 0.381912 0.340552 0.903493
2669 5 0.0113313 0.458294 0.340552 0.903493
2671 5 0.0075128 0.534677 0.340552 0.903493
2673 5 0.000788878 0.611059 0.340552 0.903493
2692 5 -0.00316874 0.343721 0.402471 0.903493
2694 5 0.00505522 0.420103 0.402471 0.903493
2695 5 0.00113824 0.381912 0.381831 0.903493
2696 5 0.0119064 0.496485 0.402471 0.903493
2697 5 0.0133453 0.458294 0.381831 0.903493
2698 5 -0.000398485 0.572868 0.402471 0.903493
2699 5 0.00832476 0.534677 0.381831 0.903493
2700 5 -0.00387371 0.64925 0.402471 0.903493
2701 5 -0.00258736 0.611059 0.381831 0.903493
2719 5 -0.00391551 0.381912 0.46439 0.903493
2720 5 -0.00445626 0.343721 0.44375 0.903493
2721 5 0.00184531 0.458294 0.46439 0.903493
2722 5 0.000416824 0.420103 0.44375 0.903493
2723 5 0.000368804 0.534677 0.46439 0.903493
2724 5 0.00529819 0.496485 0.44375 0.903493
2725 5 -0.00504437 0.611059 0.46439 0.903493
2726 5 -0.00254789 0.572868 0.44375 0.903493
2728 5 -0.00440969 0.64925 0.44375 0.903493
2744 5 0.00302749 0.343721 0.526308 0.903493
2746 5 -0.00181045 0.420103 0.526308 0.903493
2747 5 -0.00246712 0.381912 0.505669 0.903493
2748 5 0.000339343 0.496485 0.526308 0.903493
2749 5 -0.00114571 0.458294 0.505669 0.903493
2750 5 -0.00252727 0.572868 0.526308 0.903493
2751 5 -0.00120325 0.534677 0.505669 0.903493
2752 5 0.000160819 0.64925 0.526308 0.903493
2753 5 -0.00339552 0.611059 0.505669 0.903493
2771 5 0.000898015 0.381912 0.588227 0.903493
2772 5 0.00430769 0.343721 0.567587 0.903493
2773 5 0.00432423 0.458294 0.588227 0.903493
2774 5 0.000751663 0.420103 0.567587 0.903493
2775 5 0.00377888 0.534677 0.588227 0.903493
2776 5 0.00338693 0.496485 0.567587 0.903493
2777 5 -0.0015162 0.611059 0.588227 0.903493
2778 5 -0.000405642 0.572868 0.567587 0.903493
2780 5 -0.000192826 0.64925 0.567587 0.903493
2796 5 -0.00509396 0.343721 0.650145 0.903493
2798 5 0.000641071 0.420103 0.650145 0.903493
2799 5 -0.00154049 0.381912 0.629506 0.903493
2800 5 0.00746253 0.496485 0.650145 0.903493
2801 5 0.00628045 0.458294 0.629506 0.903493
2802 5 0.00107545 0.572868 0.650145 0.903493
2803 5 0.00581651 0.534677 0.629506 0.903493
2804 5 -0.00576639 0.64925 0.650145 0.903493
2805 5 -0.00214324 0.611059 0.629506 0.903493
2675 5 0.00724563 0.687441 0.340552 0.903493
2677 5 0.00737369 0.763824 0.340552 0.903493
2679 5 0.000608075 0.840206 0.340552 0.903493
2681 5 0.0035261 0.916588 0.340552 0.903493
2683 5 0.00993887 0.992971 0.340552 0.903493
2702 5 0.00242259 0.725632 0.402471 0.903493
2703 5 0.00171354 0.687441 0.381831 0.903493
2704 5 -0.000499205 0.802015 0.402471 0.903493
2705 5 0.00346375 0.763824 0.381831 0.903493
2706 5 -0.000764968 0.878397 0.402471 0.903493
2707 5 -0.00107411 0.840206 0.381831 0.903493
2708 5 0.00891251 0.95478 0.402471 0.903493
2709 5 0.00434913 0.916588 0.381831 0.903493
2710 5 0.0140633 0.992971 0.381831 0.903493
2727 5 0.00131829 0.687441 0.46439 0.903493
2729 5 0.00481714 0.763824 0.46439 0.903493
2730 5 0.00290964 0.725632 0.44375 0.903493
2731 5 -0.00312215 0.840206 0.46439 0.903493
2732 5 0.000149195 0.802015 0.44375 0.903493
2733 5 -0.00319424 0.916588 0.46439 0.903493
2734 5 -0.00350183 0.878397 0.44375 0.903493
2735 5 0.00224571 0.992971 0.46439 0.903493
2736 5 0.00390444 0.95478 0.44375 0.903493
2754 5 0.00962852 0.725632 0.526308 0.903493
2755 5 0.00439303 0.687441 0.505669 0.903493
2756 5 0.00476288 0.802015 0.526308 0.903493
2757 5 0.00876374 0.763824 0.505669 0.903493
2758 5 -0.00534336 0.878397 0.526308 0.903493
2759 5 -0.0024588 0.840206 0.505669 0.903493
2760 5 -0.00210645 0.95478 0.526308 0.903493
2761 5 -0.00559948 0.916588 0.505669 0.903493
2762 5 -0.00288939 0.992971 0.505669 0.903493
2779 5 0.000845774 0.687441 0.588227 0.903493
2781 5 0.00422472 0.763824 0.588227 0.903493
2782 5 0.00635445 0.725632 0.567587 0.903493
2783 5 0.000236316 0.840206 0.588227 0.903493
2784 5 0.003762 0.802015 0.567587 0.903493
2785 5 0.00326762 0.916588 0.588227 0.903493
2786 5 -0.00145353 0.878397 0.567587 0.903493
2787 5 0.00646292 0.992971 0.588227 0.903493
2788 5 0.00313949 0.95478 0.567587 0.903493
2806 5 -0.00479052 0.725632 0.650145 0.903493
2807 5 -0.00454372 0.687441 0.629506 0.903493
2808 5 -0.0023356 0.802015 0.650145 0.903493
2809 5 -0.0010458 0.763824 0.629506 0.903493
2810 5 0.000416627 0.878397 0.650145 0.903493
2811 5 -0.000711981 0.840206 0.629506 0.903493
2812 5 0.00923917 0.95478 0.650145 0.903493
2813 5 0.00586952 0.916588 0.629506 0.903493
2814 5 0.0106675 0.992971 0.629506 0.903493
2815 5 -0.00292007 0.0763824 0.712064 0.903493
2816 5 0.00109306 0.0381912 0.691424 0.903493
2817 5 -0.00209874 0.152765 0.712064 0.903493
2818 5 -0.00544134 0.114574 0.691424 0.903493
2819 5 0.00311547 0.229147 0.712064 0.903493
2820 5 -0.00308992 0.190956 0.691424 0.903493
2821 5 -0.00285109 0.305529 0.712064 0.903493
2822 5 -0.00176489 0.267338 0.691424 0.903493
2841 5 -0.00162656 0.0381912 0.773983 0.903493
2842 5 -0.000380875 0.114574 0.773983 0.903493
2843 5 -0.00215941 0.0763824 0.753343 0.903493
2844 5 0.00968227 0.190956 0.773983 0.903493
2845 5 0.00267751 0.152765 0.753343 0.903493
2846 5 0.00962033 0.267338 0.773983 0.903493
2847 5 0.0113298 0.229147 0.753343 0.903493
2849 5 0.00156163 0.305529 0.753343 0.903493
2867 5 0.00183998 0.0763824 0.835901 0.903493
2868 5 0.00298225 0.0381912 0.815262 0.903493
2869 5 -0.0016021 0.152765 0.835901 0.903493
2870 5 -0.000858114 0.114574 0.815262 0.903493
2871 5 0.00449085 0.229147 0.835901 0.903493
2872 5 0.00559729 0.190956 0.815262 0.903493
2873 5 0.0010108 0.305529 0.835901 0.903493
2874 5 0.00691999 0.267338 0.815262 0.903493
2893 5 0.0129085 0.0381912 0.89782 0.903493
2894 5 -0.00367205 0.114574 0.89782 0.903493
2895 5 0.00454267 0.0763824 0.87718 0.903493
2896 5 -0.00869258 0.190956 0.89782 0.903493
2897 5 -0.00716942 0.152765 0.87718 0.903493
2898 5 -0.00359973 0.267338 0.89782 0.903493
2899 5 -0.00317492 0.229147 0.87718 0.903493
2901 5 -0.00198134 0.305529 0.87718 0.903493
2919 5 0.00271583 0.0763824 0.959738 0.903493
2920 5 0.00874756 0.0381912 0.939099 0.903493
2921 5 -0.00494044 0.152765 0.959738 0.903493
2922 5 -0.00287065 0.114574 0.939099 0.903493
2923 5 -0.00109999 0.229147 0.959738 0.903493
2924 5 -0.00791324 0.190956 0.939099 0.903493
2925 5 -0.0019768 0.305529 0.959738 0.903493
2926 5 -0.00303014 0.267338 0.939099 0.903493
2823 5 -0.00682068 0.381912 0.712064 0.903493
2824 5 -0.00779547 0.343721 0.691424 0.903493
2825 5 0.000121508 0.458294 0.712064 0.903493
2826 5 -0.0023436 0.420103 0.691424 0.903493
2827 5 0.00132027 0.534677 0.712064 0.903493
2828 5 0.00400209 0.496485 0.691424 0.903493
2829 5 -0.00273774 0.611059 0.712064 0.903493
2830 5 -0.00021319 0.572868 0.691424 0.903493
2832 5 -0.0052189 0.64925 0.691424 0.903493
2848 5 -0.00239809 0.343721 0.773983 0.903493
2850 5 -0.00511386 0.420103 0.773983 0.903493
2851 5 -0.00587365 0.381912 0.753343 0.903493
2852 5 -0.00181533 0.496485 0.773983 0.903493
2853 5 -0.00297664 0.458294 0.753343 0.903493
2854 5 -0.00131777 0.572868 0.773983 0.903493
2855 5 -0.00105225 0.534677 0.753343 0.903493
2856 5 0.00179377 0.64925 0.773983 0.903493
2857 5 -0.00127663 0.611059 0.753343 0.903493
2875 5 -0.00327435 0.381912 0.835901 0.903493
2876 5 -0.00107044 0.343721 0.815262 0.903493
2877 5 -0.00306521 0.458294 0.835901 0.903493
2878 5 -0.00416288 0.420103 0.815262 0.903493
2879 5 -0.00169005 0.534677 0.835901 0.903493
2880 5 -0.00243686 0.496485 0.815262 0.903493
2881 5 0.000120391 0.611059 0.835901 0.903493
2882 5 -0.00107671 0.572868 0.815262 0.903493
2884 5 0.00289786 0.64925 0.815262 0.903493
2900 5 -0.0033874 0.343721 0.89782 0.903493
2902 5 -0.00403994 0.420103 0.89782 0.903493
2903 5 -0.00309388 0.381912 0.87718 0.903493
2904 5 -0.00338165 0.496485 0.89782 0.903493
2905 5 -0.00337994 0.458294 0.87718 0.903493
2906 5 -0.00222745 0.572868 0.89782 0.903493
2907 5 -0.00210922 0.534677 0.87718 0.903493
2908 5 -0.000819643 0.64925 0.89782 0.903493
2909 5 -0.000892115 0.611059 0.87718 0.903493
2927 5 -0.0062297 0.381912 0.959738 0.903493
2928 5 -0.00401382 0.343721 0.939099 0.903493
2929 5 -0.00675759 0.458294 0.959738 0.903493
2930 5 -0.00562441 0.420103 0.939099 0.903493
2931 5 -0.00418026 0.534677 0.959738 0.903493
2932 5 -0.00435166 0.496485 0.939099 0.903493
2933 5 -0.00392736 0.611059 0.959738 0.903493
2934 5 -0.00320378 0.572868 0.939099 0.903493
2936 5 -0.00236243 0.64925 0.939099 0.903493
2831 5 -0.00311759 0.687441 0.712064 0.903493
2833 5 -0.00152988 0.763824 0.712064 0.903493
2834 5 -0.00407947 0.725632 0.691424 0.903493
2835 5 -0.00498463 0.840206 0.712064 0.903493
2836 5 -0.00355875 0.802015 0.691424 0.903493
2837 5 -0.00214208 0.916588 0.712064 0.903493
2838 5 -0.00271553 0.878397 0.691424 0.903493
2839 5 0.00179426 0.992971 0.712064 0.903493
2840 5 0.00374449 0.95478 0.691424 0.903493
2858 5 0.00597405 0.725632 0.773983 0.903493
2859 5 0.00268132 0.687441 0.753343 0.903493
2860 5 -0.00114781 0.802015 0.773983 0.903493
2861 5 0.00233483 0.763824 0.753343 0.903493
2862 5 -0.00964168 0.878397 0.773983 0.903493
2863 5 -0.00639038 0.840206 0.753343 0.903493
2864 5 -0.00512736 0.95478 0.773983 0.903493
2865 5 -0.00717833 0.916588 0.753343 0.903493
2866 5 -0.00222301 0.992971 0.753343 0.903493
2883 5 0.00485129 0.687441 0.835901 0.903493
2885 5 0.00393962 0.763824 0.835901 0.903493
2886 5 0.00695137 0.725632 0.815262 0.903493
2887 5 -0.00496564 0.840206 0.835901 0.903493
2888 5 -0.000457235 0.802015 0.815262 0.903493
2889 5 -0.00483106 0.916588 0.835901 0.903493
2890 5 -0.0088732 0.878397 0.815262 0.903493
2891 5 0.00454112 0.992971 0.835901 0.903493
2892 5 -0.00316054 0.95478 0.815262 0.903493
2910 5 0.00151354 0.725632 0.89782 0.903493
2911 5 0.00193357 0.687441 0.87718 0.903493
2912 5 -0.00178708 0.802015 0.89782 0.903493
2913 5 0.00160614 0.763824 0.87718 0.903493
2914 5 -0.00388793 0.878397 0.89782 0.903493
2915 5 -0.00381308 0.840206 0.87718 0.903493
2916 5 0.00563037 0.95478 0.89782 0.903493
2917 5 -0.00123462 0.916588 0.87718 0.903493
2918 5 0.0119353 0.992971 0.87718 0.903493
2935 5 0.00082236 0.687441 0.959738 0.903493
2937 5 0.00418896 0.763824 0.959738 0.903493
2938 5 0.00166895 0.725632 0.939099 0.903493
2939 5 -0.00506774 0.840206 0.959738 0.903493
2940 5 -0.000842162 0.802015 0.939099 0.903493
2941 5 -0.00834119 0.916588 0.959738 0.903493
2942 5 -0.00597296 0.878397 0.939099 0.903493
2943 5 0.00404889 0.992971 0.959738 0.903493
2944 5 0.0020457 0.95478 0.939099 0.903493
ITEM: TIMESTEP
5000
ITEM: NUMBER OF ATOMS
416
ITEM: BOX BOUNDS pp pp ff
0.0000000000000000e+00 3.2200000000000003e+01
0.0000000000000000e+00 3.4399999999999999e+01
-6.8000000000000000e+01 6.8000000000000000e+01
ITEM: ATOMS id type q xs ys zs
2529 5 0.00812806 0.0381912 0.0309593 0.903493
2530 5 0.00629792 0.114574 0.0309593 0.903493
2531 5 0.00466637 0.0763824 0.0103198 0.903493
2532 5 0.0143164 0.190956 0.0309593 0.903493
2533 5 0.00724407 0.152765 0.0103198 0.903493
2534 5 0.0101344 0.267338 0.0309593 0.903493
2535 5 0.01172 0.229147 0.0103198 0.903493
2537 5 0.00132251 0.305529 0.0103198 0.903493
2555 5 0.00534423 0.0763824 0.0928779 0.903493
2556 5 0.0125728 0.0381912 0.0722384 0.903493
2557 5 0.00617811 0.152765 0.0928779 0.903493
2558 5 0.0052917 0.114574 0.0722384 0.903493
2559 5 0.0120102 0.229147 0.0928779 0.903493
2560 5 0.0147751 0.190956 0.0722384 0.903493
2561 5 0.00165076 0.305529 0.0928779 0.903493
2562 5 0.0101529 0.267338 0.0722384 0.903493
2581 5 0.0064503 0.0381912 0.154797 0.903493
2582 5 -0.0055639 0.114574 0.154797 0.903493
2583 5 0.00107307 0.0763824 0.134157 0.903493
2584 5 0.00114642 0.190956 0.154797 0.903493
2585 5 -0.000718611 0.152765 0.134157 0.903493
2586 5 -0.00068526 0.267338 0.154797 0.903493
2587 5 0.00443121 0.229147 0.134157 0.903493
2589 5 -0.00235993 0.305529 0.134157 0.903493
2607 5 -0.00301889 0.0763824 0.216715 0.903493
2608 5 0.000857366 0.0381912 0.196076 0.903493
2609 5 0.000978939 0.152765 0.216715 0.903493
2610 5 -0.00509853 0.114574 0.196076 0.903493
2611 5 0.00795935 0.229147 0.216715 0.903493
2612 5 0.00272541 0.190956 0.196076 0.903493
2613 5 0.00015328 0.305529 0.216715 0.903493
2614 5 0.00135017 0.267338 0.196076 0.903493
2633 5 0.00159981 0.0381912 0.278634 0.903493
2634 5 0.00255776 0.114574 0.278634 0.903493
2635 5 -0.000946132 0.0763824 0.257994 0.903493
2636 5 0.0132551 0.190956 0.278634 0.903493
2637 5 0.00609544 0.152765 0.257994 0.903493
2638 5 0.0111905 0.267338 0.278634 0.903493
2639 5 0.0143948 0.229147 0.257994 0.903493
2641 5 0.00413392 0.305529 0.257994 0.903493
2660 5 0.00854046 0.0381912 0.319913 0.903493
2662 5 0.00455543 0.114574 0.319913 0.903493
2664 5 0.00983623 0.190956 0.319913 0.903493
2666 5 0.00688323 0.267338 0.319913 0.903493
2536 5 -0.00124072 0.343721 0.0309593 0.903493
2538 5 -0.00132885 0.420103 0.0309593 0.903493
2539 5 -0.00571296 0.381912 0.0103198 0.903493
2540 5 0.0093185 0.496485 0.0309593 0.903493
2541 5 -0.000130542 0.458294 0.0103198 0.903493
2542 5 0.00878857 0.572868 0.0309593 0.903493
2543 5 0.00704076 0.534677 0.0103198 0.903493
2544 5 0.0071317 0.64925 0.0309593 0.903493
2545 5 0.00430887 0.611059 0.0103198 0.903493
2563 5 -0.000594016 0.381912 0.0928779 0.903493
2564 5 -0.000516612 0.343721 0.0722384 0.903493
2565 5 0.0111791 0.458294 0.0928779 0.903493
2566 5 0.00272272 0.420103 0.0722384 0.903493
2567 5 0.019493 0.534677 0.0928779 0.903493
2568 5 0.0175842 0.496485 0.0722384 0.903493
2569 5 0.00803328 0.611059 0.0928779 0.903493
2570 5 0.0132338 0.572868 0.0722384 0.903493
2572 5 0.00784297 0.64925 0.0722384 0.903493
2588 5 -0.0047619 0.343721 0.154797 0.903493
2590 5 0.000180265 0.420103 0.154797 0.903493
2591 5 -0.00157151 0.381912 0.134157 0.903493
2592 5 0.00886307 0.496485 0.154797 0.903493
2593 5 0.00833432 0.458294 0.134157 0.903493
2594 5 0.00548747 0.572868 0.154797 0.903493
2595 5 0.0134497 0.534677 0.134157 0.903493
2596 5 0.00103347 0.64925 0.154797 0.903493
2597 5 0.00472844 0.611059 0.134157 0.903493
2615 5 -0.0030069 0.381912 0.216715 0.903493
2616 5 -0.00436975 0.343721 0.196076 0.903493
2617 5 0.00107327 0.458294 0.216715 0.903493
2618 5 -0.00177934 0.420103 0.196076 0.903493
2619 5 0.0019424 0.534677 0.216715 0.903493
2620 5 0.00285028 0.496485 0.196076 0.903493
2621 5 0.000930938 0.611059 0.216715 0.903493
2622 5 0.00109362 0.572868 0.196076 0.903493
2624 5 0.00114248 0.64925 0.196076 0.903493
2640 5 0.0017384 0.343721 0.278634 0.903493
2642 5 0.00741833 0.420103 0.278634 0.903493
2643 5 0.00047223 0.381912 0.257994 0.903493
2644 5 0.0105281 0.496485 0.278634 0.903493
2645 5 0.00660129 0.458294 0.257994 0.903493
2646 5 0.00452483 0.572868 0.278634 0.903493
2647 5 0.00395454 0.534677 0.257994 0.903493
2648 5 0.00826117 0.64925 0.278634 0.903493
2649 5 0.00314562 0.611059 0.257994 0.903493
2668 5 0.000224258 0.343721 0.319913 0.903493
2670 5 0.0136449 0.420103 0.319913 0.903493
2672 5 0.0181194 0.496485 0.319913 0.903493
2674 5 0.00615383 0.572868 0.319913 0.903493
2676 5 0.00692851 0.64925 0.319913 0.903493
2546 5 0.0178992 0.725632 0.0309593 0.903493
2547 5 0.0099006 0.687441 0.0103198 0.903493
2548 5 0.0156104 0.802015 0.0309593 0.903493
2549 5 0.0176713 0.763824 0.0103198 0.903493
2550 5 0.00337246 0.878397 0.0309593 0.903493
2551 5 0.00442574 0.840206 0.0103198 0.903493
2552 5 0.00698845 0.95478 0.0309593 0.903493
2553 5 -0.000782371 0.916588 0.0103198 0.903493
2554 5 0.00583871 0.992971 0.0103198 0.903493
2571 5 0.00952401 0.687441 0.0928779 0.903493
2573 5 0.0164177 0.763824 0.0928779 0.903493
2574 5 0.0176024 0.725632 0.0722384 0.903493
2575 5 0.00882614 0.840206 0.0928779 0.903493
2576 5 0.0159683 0.802015 0.0722384 0.903493
2577 5 0.0134278 0.916588 0.0928779 0.903493
2578 5 0.00808571 0.878397 0.0722384 0.903493
2579 5 0.0209981 0.992971 0.0928779 0.903493
2580 5 0.017073 0.95478 0.0722384 0.903493
2598 5 0.00542578 0.725632 0.154797 0.903493
2599 5 0.00527355 0.687441 0.134157 0.903493
2600 5 0.00343986 0.802015 0.154797 0.903493
2601 5 0.00796195 0.763824 0.134157 0.903493
2602 5 0.00389976 0.878397 0.154797 0.903493
2603 5 0.00476938 0.840206 0.134157 0.903493
2604 5 0.0127248 0.95478 0.154797 0.903493
2605 5 0.0118368 0.916588 0.134157 0.903493
2606 5 0.0173153 0.992971 0.134157 0.903493
2623 5 0.0059222 0.687441 0.216715 0.903493
2625 5 0.00693356 0.763824 0.216715 0.903493
2626 5 0.00571804 0.725632 0.196076 0.903493
2627 5 0.00119387 0.840206 0.216715 0.903493
2628 5 0.00227777 0.802015 0.196076 0.903493
2629 5 0.00195235 0.916588 0.216715 0.903493
2630 5 0.00119434 0.878397 0.196076 0.903493
2631 5 0.003147 0.992971 0.216715 0.903493
2632 5 0.00516267 0.95478 0.196076 0.903493
2650 5 0.0179257 0.725632 0.278634 0.903493
2651 5 0.0113652 0.687441 0.257994 0.903493
2652 5 0.0105286 0.802015 0.278634 0.903493
2653 5 0.0133736 0.763824 0.257994 0.903493
2654 5 0.00267739 0.878397 0.278634 0.903493
2655 5 0.00369022 0.840206 0.257994 0.903493
2656 5 0.00313244 0.95478 0.278634 0.903493
2657 5 0.00127778 0.916588 0.257994 0.903493
2658 5 0.00205483 0.992971 0.257994 0.903493
2678 5 0.0171845 0.725632 0.319913 0.903493
2680 5 0.0109072 0.802015 0.319913 0.903493
2682 5 0.00395802 0.878397 0.319913 0.903493
2684 5 0.00723403 0.95478 0.319913 0.903493
2659 5 0.00716165 0.0763824 0.340552 0.903493
2661 5 0.00522295 0.152765 0.340552 0.903493
2663 5 0.00666051 0.229147 0.340552 0.903493
2665 5 -0.00120597 0.305529 0.340552 0.903493
2685 5 0.0166667 0.0381912 0.402471 0.903493
2686 5 0.00242813 0.114574 0.402471 0.903493
2687 5 0.00904785 0.0763824 0.381831 0.903493
2688 5 -0.000756196 0.190956 0.402471 0.903493
2689 5 0.00146078 0.152765 0.381831 0.903493
2690 5 -0.00464501 0.267338 0.402471 0.903493
2691 5 0.000150505 0.229147 0.381831 0.903493
2693 5 -0.00634001 0.305529 0.381831 0.903493
2711 5 0.000684939 0.0763824 0.46439 0.903493
2712 5 0.00967952 0.0381912 0.44375 0.903493
2713 5 -0.00254091 0.152765 0.46439 0.903493
2714 5 -0.000867806 0.114574 0.44375 0.903493
2715 5 0.00170184 0.229147 0.46439 0.903493
2716 5 -0.00141367 0.190956 0.44375 0.903493
2717 5 -0.00214982 0.305529 0.46439 0.903493
2718 5 -0.00234626 0.267338 0.44375 0.903493
2737 5 0.00166164 0.0381912 0.526308 0.903493
2738 5 -0.00449856 0.114574 0.526308 0.903493
2739 5 -0.00297531 0.0763824 0.505669 0.903493
2740 5 0.00392677 0.190956 0.526308 0.903493
2741 5 -0.00227129 0.152765 0.505669 0.903493
2742 5 0.00940788 0.267338 0.526308 0.903493
2743 5 0.00699924 0.229147 0.505669 0.903493
2745 5 0.00419337 0.305529 0.505669 0.903493
2763 5 0.000868199 0.0763824 0.588227 0.903493
2764 5 0.00658304 0.0381912 0.567587 0.903493
2765 5 -0.00254003 0.152765 0.588227 0.903493
2766 5 -0.00367366 0.114574 0.567587 0.903493
2767 5 0.00546994 0.229147 0.588227 0.903493
2768 5 0.00320996 0.190956 0.567587 0.903493
2769 5 0.00448856 0.305529 0.588227 0.903493
2770 5 0.00859646 0.267338 0.567587 0.903493
2789 5 0.00768414 0.0381912 0.650145 0.903493
2790 5 -0.00849932 0.114574 0.650145 0.903493
2791 5 -0.000258243 0.0763824 0.629506 0.903493
2792 5 -0.00272054 0.190956 0.650145 0.903493
2793 5 -0.00563216 0.152765 0.629506 0.903493
2794 5 0.000946362 0.267338 0.650145 0.903493
2795 5 0.00173411 0.229147 0.629506 0.903493
2797 5 0.000610214 0.305529 0.629506 0.903493
2667 5 0.00407014 0.381912 0.340552 0.903493
2669 5 0.0210885 0.458294 0.340552 0.903493
2671 5 0.0115463 0.534677 0.340552 0.903493
2673 5 0.00288419 0.611059 0.340552 0.903493
2692 5 -0.00696467 0.343721 0.402471 0.903493
2694 5 0.00552344 0.420103 0.402471 0.903493
2695 5 0.00108886 0.381912 0.381831 0.903493
2696 5 0.00937688 0.496485 0.402471 0.903493
2697 5 0.014603 0.458294 0.381831 0.903493
2698 5 -0.000545557 0.572868 0.402471 0.903493
2699 5 0.008414 0.534677 0.381831 0.903493
2700 5 -0.00751129 0.64925 0.402471 0.903493
2701 5 -0.00265526 0.611059 0.381831 0.903493
2719 5 -0.00249633 0.381912 0.46439 0.903493
2720 5 -0.00552498 0.343721 0.44375 0.903493
2721 5 0.00180772 0.458294 0.46439 0.903493
2722 5 0.000453644 0.420103 0.44375 0.903493
2723 5 0.000204527 0.534677 0.46439 0.903493
2724 5 0.00308833 0.496485 0.44375 0.903493
2725 5 -0.00423712 0.611059 0.46439 0.903493
2726 5 -0.00271417 0.572868 0.44375 0.903493
2728 5 -0.00677555 0.64925 0.44375 0.903493
2744 5 0.00285991 0.343721 0.526308 0.903493
2746 5 0.00322366 0.420103 0.526308 0.903493
2747 5 -0.000227794 0.381912 0.505669 0.903493
2748 5 0.00482693 0.496485 0.526308 0.903493
2749 5 0.00267655 0.458294 0.505669 0.903493
2750 5 0.00101482 0.572868 0.526308 0.903493
2751 5 0.00102971 0.534677 0.505669 0.903493
2752 5 0.00366092 0.64925 0.526308 0.903493
2753 5 -0.000447708 0.611059 0.505669 0.903493
2771 5 0.00591522 0.381912 0.588227 0.903493
2772 5 0.00395495 0.343721 0.567587 0.903493
2773 5 0.0168662 0.458294 0.588227 0.903493
2774 5 0.00890401 0.420103 0.567587 0.903493
2775 5 0.00912734 0.534677 0.588227 0.903493
2776 5 0.012163 0.496485 0.567587 0.903493
2777 5 -0.00173774 0.611059 0.588227 0.903493
2778 5 0.00220719 0.572868 0.567587 0.903493
2780 5 0.00181346 0.64925 0.567587 0.903493
2796 5 -0.000708998 0.343721 0.650145 0.903493
2798 5 0.0105578 0.420103 0.650145 0.903493
2799 5 0.00508588 0.381912 0.629506 0.903493
2800 5 0.0154073 0.496485 0.650145 0.903493
2801 5 0.0196571 0.458294 0.629506 0.903493
2802 5 -0.00166963 0.572868 0.650145 0.903493
2803 5 0.00947567 0.534677 0.629506 0.903493