ITEM: TIMESTEP
0
ITEM: NUMBER OF ATOMS
416
ITEM: BOX BOUNDS pp pp ff
0.0000000000000000e+00 3.2200000000000003e+01
0.0000000000000000e+00 3.4399999999999999e+01
-6.8000000000000000e+01 6.8000000000000000e+01
ITEM: ATOMS id type q xs ys zs
1698 5 -0.00445559 0.0381912 0.0309593 0.0965074
1701 5 0.0101485 0.114574 0.0309593 0.0965074
1702 5 0.00273602 0.0763824 0.0103198 0.0965074
1705 5 0.00701643 0.190956 0.0309593 0.0965074
1706 5 0.0108056 0.152765 0.0103198 0.0965074
1709 5 -0.00430406 0.267338 0.0309593 0.0965074
1710 5 0.000557466 0.229147 0.0103198 0.0965074
1714 5 -0.00349968 0.305529 0.0103198 0.0965074
1751 5 0.00466 0.0763824 0.0928779 0.0965074
1752 5 -0.00159996 0.0381912 0.0722384 0.0965074
1755 5 0.00642507 0.152765 0.0928779 0.0965074
1756 5 0.00871383 0.114574 0.0722384 0.0965074
1759 5 -0.00321974 0.229147 0.0928779 0.0965074
1760 5 0.00459777 0.190956 0.0722384 0.0965074
1763 5 -0.00932994 0.305529 0.0928779 0.0965074
1764 5 -0.00674871 0.267338 0.0722384 0.0965074
1802 5 0.00768682 0.0381912 0.154797 0.0965074
1805 5 0.00383885 0.114574 0.154797 0.0965074
1806 5 0.00581481 0.0763824 0.134157 0.0965074
1809 5 -0.00241397 0.190956 0.154797 0.0965074
1810 5 0.00134214 0.152765 0.134157 0.0965074
1813 5 -0.00663626 0.267338 0.154797 0.0965074
1814 5 -0.00454061 0.229147 0.134157 0.0965074
1818 5 -0.00860023 0.305529 0.134157 0.0965074
1855 5 0.00425444 0.0763824 0.216715 0.0965074
1856 5 0.00882193 0.0381912 0.196076 0.0965074
1859 5 -0.00186101 0.152765 0.216715 0.0965074
1860 5 0.00171105 0.114574 0.196076 0.0965074
1863 5 -0.00152849 0.229147 0.216715 0.0965074
1864 5 -0.00274553 0.190956 0.196076 0.0965074
1867 5 -0.00300776 0.305529 0.216715 0.0965074
1868 5 -0.00345504 0.267338 0.196076 0.0965074
1906 5 -0.00206657 0.0381912 0.278634 0.0965074
1909 5 -0.00536005 0.114574 0.278634 0.0965074
1910 5 -0.00115896 0.0763824 0.257994 0.0965074
1913 5 -0.000793527 0.190956 0.278634 0.0965074
1914 5 -0.00347214 0.152765 0.257994 0.0965074
1917 5 0.00365769 0.267338 0.278634 0.0965074
1918 5 0.0017434 0.229147 0.257994 0.0965074
1922 5 0.000834964 0.305529 0.257994 0.0965074
1960 5 -0.00705872 0.0381912 0.319913 0.0965074
1964 5 -0.00762523 0.114574 0.319913 0.0965074
1968 5 -0.00063846 0.190956 0.319913 0.0965074
1972 5 0.003824 0.267338 0.319913 0.0965074
1713 5 -0.000886543 0.343721 0.0309593 0.0965074
1717 5 0.0107884 0.420103 0.0309593 0.0965074
1718 5 0.00829604 0.381912 0.0103198 0.0965074
1721 5 0.00339708 0.496485 0.0309593 0.0965074
1722 5 0.0125355 0.458294 0.0103198 0.0965074
1725 5 -0.00221658 0.572868 0.0309593 0.0965074
1726 5 0.00250199 0.534677 0.0103198 0.0965074
1729 5 0.00357113 0.64925 0.0309593 0.0965074
1730 5 0.00697025 0.611059 0.0103198 0.0965074
1767 5 -0.001958 0.381912 0.0928779 0.0965074
1768 5 -0.00480485 0.343721 0.0722384 0.0965074
1771 5 0.000451924 0.458294 0.0928779 0.0965074
1772 5 0.00428849 0.420103 0.0722384 0.0965074
1775 5 -0.00955257 0.534677 0.0928779 0.0965074
1776 5 -0.00194136 0.496485 0.0722384 0.0965074
1779 5 -0.0069795 0.611059 0.0928779 0.0965074
1780 5 -0.00934321 0.572868 0.0722384 0.0965074
1784 5 -0.00248278 0.64925 0.0722384 0.0965074
1817 5 -0.0079533 0.343721 0.154797 0.0965074
1821 5 -0.00340296 0.420103 0.154797 0.0965074
1822 5 -0.00552824 0.381912 0.134157 0.0965074
1825 5 -0.00152924 0.496485 0.154797 0.0965074
1826 5 -0.00268041 0.458294 0.134157 0.0965074
1829 5 -5.33554e-05 0.572868 0.154797 0.0965074
1830 5 -0.00491581 0.534677 0.134157 0.0965074
1833 5 0.000296721 0.64925 0.154797 0.0965074
1834 5 -0.00303419 0.611059 0.134157 0.0965074
1871 5 -0.00421233 0.381912 0.216715 0.0965074
1872 5 -0.00608999 0.343721 0.196076 0.0965074
1875 5 -0.000119082 0.458294 0.216715 0.0965074
1876 5 -0.00357455 0.420103 0.196076 0.0965074
1879 5 0.00864397 0.534677 0.216715 0.0965074
1880 5 0.00217485 0.496485 0.196076 0.0965074
1883 5 0.00993557 0.611059 0.216715 0.0965074
1884 5 0.00950802 0.572868 0.196076 0.0965074
1888 5 0.00375461 0.64925 0.196076 0.0965074
1921 5 -0.000549012 0.343721 0.278634 0.0965074
1925 5 -0.00228472 0.420103 0.278634 0.0965074
1926 5 -0.00252953 0.381912 0.257994 0.0965074
1929 5 0.00156676 0.496485 0.278634 0.0965074
1930 5 -0.000157944 0.458294 0.257994 0.0965074
1933 5 0.00583575 0.572868 0.278634 0.0965074
1934 5 0.0076898 0.534677 0.257994 0.0965074
1937 5 -0.0018774 0.64925 0.278634 0.0965074
1938 5 0.00687419 0.611059 0.257994 0.0965074
1976 5 -0.00140287 0.343721 0.319913 0.0965074
1980 5 -0.00355036 0.420103 0.319913 0.0965074
1984 5 -0.00160893 0.496485 0.319913 0.0965074
1988 5 -0.00212319 0.572868 0.319913 0.0965074
1992 5 -0.00706455 0.64925 0.319913 0.0965074
1733 5 0.00505183 0.725632 0.0309593 0.0965074
1734 5 0.00861371 0.687441 0.0103198 0.0965074
1737 5 0.00811962 0.802015 0.0309593 0.0965074
1738 5 0.00659431 0.763824 0.0103198 0.0965074
1741 5 0.00309734 0.878397 0.0309593 0.0965074
1742 5 0.00522141 0.840206 0.0103198 0.0965074
1745 5 -0.00881219 0.95478 0.0309593 0.0965074
1746 5 -0.00448041 0.916588 0.0103198 0.0965074
1748 5 -0.0108111 0.992971 0.0103198 0.0965074
1783 5 -0.000933535 0.687441 0.0928779 0.0965074
1787 5 0.00665739 0.763824 0.0928779 0.0965074
1788 5 0.00319875 0.725632 0.0722384 0.0965074
1791 5 0.0109658 0.840206 0.0928779 0.0965074
1792 5 0.0110891 0.802015 0.0722384 0.0965074
1795 5 -0.000146708 0.916588 0.0928779 0.0965074
1796 5 0.00584729 0.878397 0.0722384 0.0965074
1799 5 -0.00506732 0.992971 0.0928779 0.0965074
1800 5 -0.0070474 0.95478 0.0722384 0.0965074
1837 5 -0.000218143 0.725632 0.154797 0.0965074
1838 5 -0.00122141 0.687441 0.134157 0.0965074
1841 5 0.0017912 0.802015 0.154797 0.0965074
1842 5 0.00332005 0.763824 0.134157 0.0965074
1845 5 -0.00123735 0.878397 0.154797 0.0965074
1846 5 0.00491645 0.840206 0.134157 0.0965074
1849 5 0.000134573 0.95478 0.154797 0.0965074
1850 5 -0.000524616 0.916588 0.134157 0.0965074
1852 5 0.00297332 0.992971 0.134157 0.0965074
1887 5 0.000483995 0.687441 0.216715 0.0965074
1891 5 -0.00376837 0.763824 0.216715 0.0965074
1892 5 -0.00151337 0.725632 0.196076 0.0965074
1895 5 -0.00994509 0.840206 0.216715 0.0965074
1896 5 -0.00439821 0.802015 0.196076 0.0965074
1899 5 -0.00961966 0.916588 0.216715 0.0965074
1900 5 -0.00951208 0.878397 0.196076 0.0965074
1903 5 0.00397965 0.992971 0.216715 0.0965074
1904 5 -0.000916662 0.95478 0.196076 0.0965074
1941 5 -0.00132891 0.725632 0.278634 0.0965074
1942 5 -0.00142848 0.687441 0.257994 0.0965074
1945 5 -0.00276548 0.802015 0.278634 0.0965074
1946 5 -0.00229628 0.763824 0.257994 0.0965074
1949 5 -0.011592 0.878397 0.278634 0.0965074
1950 5 -0.00970999 0.840206 0.257994 0.0965074
1953 5 -0.00771692 0.95478 0.278634 0.0965074
1954 5 -0.011874 0.916588 0.257994 0.0965074
1956 5 -0.00170141 0.992971 0.257994 0.0965074
1996 5 0.00319537 0.725632 0.319913 0.0965074
2000 5 0.0047045 0.802015 0.319913 0.0965074
2004 5 -0.00671302 0.878397 0.319913 0.0965074
2008 5 -0.00808737 0.95478 0.319913 0.0965074
1959 5 -0.00814235 0.0763824 0.340552 0.0965074
1963 5 -0.00537538 0.152765 0.340552 0.0965074
1967 5 0.00223853 0.229147 0.340552 0.0965074
1971 5 9.99741e-05 0.305529 0.340552 0.0965074
2010 5 -0.00649968 0.0381912 0.402471 0.0965074
2013 5 -0.00418531 0.114574 0.402471 0.0965074
2014 5 -0.00735983 0.0763824 0.381831 0.0965074
2017 5 0.00157065 0.190956 0.402471 0.0965074
2018 5 -0.0032213 0.152765 0.381831 0.0965074
2021 5 -0.000394582 0.267338 0.402471 0.0965074
2022 5 0.00181822 0.229147 0.381831 0.0965074
2026 5 -0.0041464 0.305529 0.381831 0.0965074
2063 5 0.000773057 0.0763824 0.46439 0.0965074
2064 5 -0.00164342 0.0381912 0.44375 0.0965074
2067 5 0.00703448 0.152765 0.46439 0.0965074
2068 5 0.000323565 0.114574 0.44375 0.0965074
2071 5 0.0103643 0.229147 0.46439 0.0965074
2072 5 0.00752267 0.190956 0.44375 0.0965074
2075 5 -0.00388051 0.305529 0.46439 0.0965074
2076 5 0.00155271 0.267338 0.44375 0.0965074
2114 5 0.00536801 0.0381912 0.526308 0.0965074
2117 5 0.00425835 0.114574 0.526308 0.0965074
2118 5 0.00301078 0.0763824 0.505669 0.0965074
2121 5 0.0124528 0.190956 0.526308 0.0965074
2122 5 0.0093329 0.152765 0.505669 0.0965074
2125 5 0.00587279 0.267338 0.526308 0.0965074
2126 5 0.0132242 0.229147 0.505669 0.0965074
2130 5 -0.00120842 0.305529 0.505669 0.0965074
2167 5 3.10838e-05 0.0763824 0.588227 0.0965074
2168 5 0.00421445 0.0381912 0.567587 0.0965074
2171 5 0.00127733 0.152765 0.588227 0.0965074
2172 5 0.00174682 0.114574 0.567587 0.0965074
2175 5 0.00236414 0.229147 0.588227 0.0965074
2176 5 0.00590056 0.190956 0.567587 0.0965074
2179 5 -0.00291576 0.305529 0.588227 0.0965074
2180 5 0.00193097 0.267338 0.567587 0.0965074
2218 5 -1.74721e-05 0.0381912 0.650145 0.0965074
2221 5 -0.00212335 0.114574 0.650145 0.0965074
2222 5 -0.00124041 0.0763824 0.629506 0.0965074
2225 5 -0.000700734 0.190956 0.650145 0.0965074
2226 5 -0.00160459 0.152765 0.629506 0.0965074
2229 5 -0.00143678 0.267338 0.650145 0.0965074
2230 5 -0.0008178 0.229147 0.629506 0.0965074
2234 5 -0.00328222 0.305529 0.629506 0.0965074
1975 5 -0.00468131 0.381912 0.340552 0.0965074
1979 5 -0.00417409 0.458294 0.340552 0.0965074
1983 5 -0.00307993 0.534677 0.340552 0.0965074
1987 5 -0.00648515 0.611059 0.340552 0.0965074
2025 5 -0.00985325 0.343721 0.402471 0.0965074
2029 5 -0.00708078 0.420103 0.402471 0.0965074
2030 5 -0.00830937 0.381912 0.381831 0.0965074
2033 5 -0.00392605 0.496485 0.402471 0.0965074
2034 5 -0.00485752 0.458294 0.381831 0.0965074
2037 5 -0.00630482 0.572868 0.402471 0.0965074
2038 5 -0.00495949 0.534677 0.381831 0.0965074
2041 5 -0.0056918 0.64925 0.402471 0.0965074
2042 5 -0.00777958 0.611059 0.381831 0.0965074
2079 5 -0.00644768 0.381912 0.46439 0.0965074
2080 5 -0.0106941 0.343721 0.44375 0.0965074
2083 5 0.00225619 0.458294 0.46439 0.0965074
2084 5 -0.00417709 0.420103 0.44375 0.0965074
2087 5 -0.000371485 0.534677 0.46439 0.0965074
2088 5 -0.000459197 0.496485 0.44375 0.0965074
2091 5 -0.00607109 0.611059 0.46439 0.0965074
2092 5 -0.00506603 0.572868 0.44375 0.0965074
2096 5 -0.00541447 0.64925 0.44375 0.0965074
2129 5 -0.00291439 0.343721 0.526308 0.0965074
2133 5 0.0072029 0.420103 0.526308 0.0965074
2134 5 -0.00120378 0.381912 0.505669 0.0965074
2137 5 0.00908009 0.496485 0.526308 0.0965074
2138 5 0.00898253 0.458294 0.505669 0.0965074
2141 5 -0.000401005 0.572868 0.526308 0.0965074
2142 5 0.00283214 0.534677 0.505669 0.0965074
2145 5 -0.00330043 0.64925 0.526308 0.0965074
2146 5 -0.00392299 0.611059 0.505669 0.0965074
2183 5 -0.000111069 0.381912 0.588227 0.0965074
2184 5 -0.00154857 0.343721 0.567587 0.0965074
2187 5 0.00474308 0.458294 0.588227 0.0965074
2188 5 0.00614275 0.420103 0.567587 0.0965074
2191 5 -0.000484253 0.534677 0.588227 0.0965074
2192 5 0.006166 0.496485 0.567587 0.0965074
2195 5 -0.00207216 0.611059 0.588227 0.0965074
2196 5 -0.000771036 0.572868 0.567587 0.0965074
2200 5 -0.00138716 0.64925 0.567587 0.0965074
2233 5 -0.00307642 0.343721 0.650145 0.0965074
2237 5 -0.00377646 0.420103 0.650145 0.0965074
2238 5 -0.00227316 0.381912 0.629506 0.0965074
2241 5 -0.00883024 0.496485 0.650145 0.0965074
2242 5 -0.00333568 0.458294 0.629506 0.0965074
2245 5 -0.00705733 0.572868 0.650145 0.0965074
2246 5 -0.00680562 0.534677 0.629506 0.0965074
2249 5 1.43578e-05 0.64925 0.650145 0.0965074
2250 5 -0.00289924 0.611059 0.629506 0.0965074
1991 5 -0.00201974 0.687441 0.340552 0.0965074
1995 5 0.0112337 0.763824 0.340552 0.0965074
1999 5 0.00201127 0.840206 0.340552 0.0965074
2003 5 -0.00717678 0.916588 0.340552 0.0965074
2007 5 -0.00733895 0.992971 0.340552 0.0965074
2045 5 0.00745925 0.725632 0.402471 0.0965074
2046 5 0.00048882 0.687441 0.381831 0.0965074
2049 5 0.00842725 0.802015 0.402471 0.0965074
2050 5 0.0140973 0.763824 0.381831 0.0965074
2053 5 -0.0021411 0.878397 0.402471 0.0965074
2054 5 0.00362345 0.840206 0.381831 0.0965074
2057 5 -0.00435314 0.95478 0.402471 0.0965074
2058 5 -0.00401053 0.916588 0.381831 0.0965074
2060 5 -0.00700266 0.992971 0.381831 0.0965074
2095 5 -0.00308984 0.687441 0.46439 0.0965074
2099 5 -0.000846194 0.763824 0.46439 0.0965074
2100 5 0.00193139 0.725632 0.44375 0.0965074
2103 5 -0.00704148 0.840206 0.46439 0.0965074
2104 5 -0.000548671 0.802015 0.44375 0.0965074
2107 5 -0.000413137 0.916588 0.46439 0.0965074
2108 5 -0.0042024 0.878397 0.44375 0.0965074
2111 5 0.00199034 0.992971 0.46439 0.0965074
2112 5 -5.577e-05 0.95478 0.44375 0.0965074
2149 5 -0.00306539 0.725632 0.526308 0.0965074
2150 5 -0.00334004 0.687441 0.505669 0.0965074
2153 5 -0.00832666 0.802015 0.526308 0.0965074
2154 5 -0.00539457 0.763824 0.505669 0.0965074
2157 5 -0.00286792 0.878397 0.526308 0.0965074
2158 5 -0.00884615 0.840206 0.505669 0.0965074
2161 5 0.00893912 0.95478 0.526308 0.0965074
2162 5 0.00314216 0.916588 0.505669 0.0965074
2164 5 0.00783433 0.992971 0.505669 0.0965074
2199 5 0.00134313 0.687441 0.588227 0.0965074
2203 5 0.0010614 0.763824 0.588227 0.0965074
2204 5 -0.000222833 0.725632 0.567587 0.0965074
2207 5 -0.00312458 0.840206 0.588227 0.0965074
2208 5 -0.00462794 0.802015 0.567587 0.0965074
2211 5 0.00244466 0.916588 0.588227 0.0965074
2212 5 -0.00152551 0.878397 0.567587 0.0965074
2215 5 0.00536555 0.992971 0.588227 0.0965074
2216 5 0.00725787 0.95478 0.567587 0.0965074
2253 5 0.0092586 0.725632 0.650145 0.0965074
2254 5 0.00402702 0.687441 0.629506 0.0965074
2257 5 0.00569626 0.802015 0.650145 0.0965074
2258 5 0.00789133 0.763824 0.629506 0.0965074
2261 5 -0.00201171 0.878397 0.650145 0.0965074
2262 5 7.57289e-05 0.840206 0.629506 0.0965074
2265 5 -0.000550956 0.95478 0.650145 0.0965074
2266 5 -0.00105694 0.916588 0.629506 0.0965074
2268 5 0.00132712 0.992971 0.629506 0.0965074
2271 5 0.00125317 0.0763824 0.712064 0.0965074
2272 5 0.00161641 0.0381912 0.691424 0.0965074
2275 5 0.000170019 0.152765 0.712064 0.0965074
2276 5 -0.00123116 0.114574 0.691424 0.0965074
2279 5 0.00553133 0.229147 0.712064 0.0965074
2280 5 0.000783405 0.190956 0.691424 0.0965074
2283 5 0.00418314 0.305529 0.712064 0.0965074
2284 5 0.00338977 0.267338 0.691424 0.0965074
2322 5 0.00662278 0.0381912 0.773983 0.0965074
2325 5 -0.00273317 0.114574 0.773983 0.0965074
2326 5 0.00239909 0.0763824 0.753343 0.0965074
2329 5 0.00239978 0.190956 0.773983 0.0965074
2330 5 -0.00101462 0.152765 0.753343 0.0965074
2333 5 0.010778 0.267338 0.773983 0.0965074
2334 5 0.00906876 0.229147 0.753343 0.0965074
2338 5 0.00778508 0.305529 0.753343 0.0965074
2375 5 -0.00263439 0.0763824 0.835901 0.0965074
2376 5 0.00473378 0.0381912 0.815262 0.0965074
2379 5 -0.00933104 0.152765 0.835901 0.0965074
2380 5 -0.00705835 0.114574 0.815262 0.0965074
2383 5 0.000526438 0.229147 0.835901 0.0965074
2384 5 -0.00207484 0.190956 0.815262 0.0965074
2387 5 0.00229238 0.305529 0.835901 0.0965074
2388 5 0.00608531 0.267338 0.815262 0.0965074
2426 5 -0.00370221 0.0381912 0.89782 0.0965074
2429 5 -0.00760993 0.114574 0.89782 0.0965074
2430 5 -0.0048189 0.0763824 0.87718 0.0965074
2433 5 -0.00686746 0.190956 0.89782 0.0965074
2434 5 -0.00909601 0.152765 0.87718 0.0965074
2437 5 -0.0030537 0.267338 0.89782 0.0965074
2438 5 -0.00422903 0.229147 0.87718 0.0965074
2442 5 -0.0012613 0.305529 0.87718 0.0965074
2479 5 -0.00169068 0.0763824 0.959738 0.0965074
2480 5 -0.00632427 0.0381912 0.939099 0.0965074
2483 5 0.00219196 0.152765 0.959738 0.0965074
2484 5 -0.00240962 0.114574 0.939099 0.0965074
2487 5 -0.00176028 0.229147 0.959738 0.0965074
2488 5 -0.00295875 0.190956 0.939099 0.0965074
2491 5 -0.00185384 0.305529 0.959738 0.0965074
2492 5 -0.00386811 0.267338 0.939099 0.0965074
2287 5 -0.00205789 0.381912 0.712064 0.0965074
2288 5 -0.000825816 0.343721 0.691424 0.0965074
2291 5 -0.00650744 0.458294 0.712064 0.0965074
2292 5 -0.00529558 0.420103 0.691424 0.0965074
2295 5 -0.00727846 0.534677 0.712064 0.0965074
2296 5 -0.00990013 0.496485 0.691424 0.0965074
2299 5 -0.00553182 0.611059 0.712064 0.0965074
2300 5 -0.00670988 0.572868 0.691424 0.0965074
2304 5 -0.00324757 0.64925 0.691424 0.0965074
2337 5 0.00248653 0.343721 0.773983 0.0965074
2341 5 -0.00411525 0.420103 0.773983 0.0965074
2342 5 -0.00168863 0.381912 0.753343 0.0965074
2345 5 -0.00256054 0.496485 0.773983 0.0965074
2346 5 -0.0046703 0.458294 0.753343 0.0965074
2349 5 -0.00024252 0.572868 0.773983 0.0965074
2350 5 -0.00200495 0.534677 0.753343 0.0965074
2353 5 -0.00849993 0.64925 0.773983 0.0965074
2354 5 -0.00449892 0.611059 0.753343 0.0965074
2391 5 -0.00337573 0.381912 0.835901 0.0965074
2392 5 0.00100672 0.343721 0.815262 0.0965074
2395 5 -0.00567107 0.458294 0.835901 0.0965074
2396 5 -0.00490162 0.420103 0.815262 0.0965074
2399 5 -0.00122153 0.534677 0.835901 0.0965074
2400 5 -0.00299723 0.496485 0.815262 0.0965074
2403 5 0.000579758 0.611059 0.835901 0.0965074
2404 5 0.00102011 0.572868 0.815262 0.0965074
2408 5 -0.00489415 0.64925 0.815262 0.0965074
2441 5 -0.00102774 0.343721 0.89782 0.0965074
2445 5 -0.00230995 0.420103 0.89782 0.0965074
2446 5 -0.00207784 0.381912 0.87718 0.0965074
2449 5 -0.00490037 0.496485 0.89782 0.0965074
2450 5 -0.00543378 0.458294 0.87718 0.0965074
2453 5 0.00345378 0.572868 0.89782 0.0965074
2454 5 -0.00295767 0.534677 0.87718 0.0965074
2457 5 0.00788736 0.64925 0.89782 0.0965074
2458 5 0.00472418 0.611059 0.87718 0.0965074
2495 5 0.00611504 0.381912 0.959738 0.0965074
2496 5 -2.28391e-05 0.343721 0.939099 0.0965074
2499 5 0.00737237 0.458294 0.959738 0.0965074
2500 5 0.00378807 0.420103 0.939099 0.0965074
2503 5 0.00399114 0.534677 0.959738 0.0965074
2504 5 -1.45381e-05 0.496485 0.939099 0.0965074
2507 5 0.0137655 0.611059 0.959738 0.0965074
2508 5 0.00615457 0.572868 0.939099 0.0965074
2512 5 0.0136458 0.64925 0.939099 0.0965074
2303 5 -0.00244325 0.687441 0.712064 0.0965074
2307 5 0.00461595 0.763824 0.712064 0.0965074
2308 5 0.00652508 0.725632 0.691424 0.0965074
2311 5 -0.00142965 0.840206 0.712064 0.0965074
2312 5 0.00489974 0.802015 0.691424 0.0965074
2315 5 -0.00283021 0.916588 0.712064 0.0965074
2316 5 -0.00293948 0.878397 0.691424 0.0965074
2319 5 0.00224444 0.992971 0.712064 0.0965074
2320 5 -0.00110843 0.95478 0.691424 0.0965074
2357 5 -0.00841034 0.725632 0.773983 0.0965074
2358 5 -0.00911272 0.687441 0.753343 0.0965074
2361 5 -0.00438586 0.802015 0.773983 0.0965074
2362 5 -0.0029896 0.763824 0.753343 0.0965074
2365 5 -0.00429788 0.878397 0.773983 0.0965074
2366 5 -0.00380626 0.840206 0.753343 0.0965074
2369 5 0.00259192 0.95478 0.773983 0.0965074
2370 5 -0.00203116 0.916588 0.753343 0.0965074
2372 5 0.00582728 0.992971 0.753343 0.0965074
2407 5 -0.00622579 0.687441 0.835901 0.0965074
2411 5 -0.00569706 0.763824 0.835901 0.0965074
2412 5 -0.00932616 0.725632 0.815262 0.0965074
2415 5 -0.00417937 0.840206 0.835901 0.0965074
2416 5 -0.00550973 0.802015 0.815262 0.0965074
2419 5 -0.00139276 0.916588 0.835901 0.0965074
2420 5 -0.00357361 0.878397 0.815262 0.0965074
2423 5 0.00402288 0.992971 0.835901 0.0965074
2424 5 0.00244257 0.95478 0.815262 0.0965074
2461 5 0.00177368 0.725632 0.89782 0.0965074
2462 5 0.00157732 0.687441 0.87718 0.0965074
2465 5 -0.00163692 0.802015 0.89782 0.0965074
2466 5 -0.0024453 0.763824 0.87718 0.0965074
2469 5 -0.00280066 0.878397 0.89782 0.0965074
2470 5 -0.00296379 0.840206 0.87718 0.0965074
2473 5 -0.00305218 0.95478 0.89782 0.0965074
2474 5 -0.00219583 0.916588 0.87718 0.0965074
2476 5 -0.00165116 0.992971 0.87718 0.0965074
2511 5 0.0123006 0.687441 0.959738 0.0965074
2515 5 0.00434629 0.763824 0.959738 0.0965074
2516 5 0.00573362 0.725632 0.939099 0.0965074
2519 5 0.000543325 0.840206 0.959738 0.0965074
2520 5 0.000640897 0.802015 0.939099 0.0965074
2523 5 -0.00457 0.916588 0.959738 0.0965074
2524 5 -0.00213133 0.878397 0.939099 0.0965074
2527 5 -0.00870355 0.992971 0.959738 0.0965074
2528 5 -0.00575049 0.95478 0.939099 0.0965074
ITEM: TIMESTEP
5000
ITEM: NUMBER OF ATOMS
416
ITEM: BOX BOUNDS pp pp ff
0.0000000000000000e+00 3.2200000000000003e+01
0.0000000000000000e+00 3.4399999999999999e+01
-6.8000000000000000e+01 6.8000000000000000e+01
ITEM: ATOMS id type q xs ys zs
1698 5 -0.0054547 0.0381912 0.0309593 0.0965074
1701 5 -0.000398499 0.114574 0.0309593 0.0965074
1702 5 -0.00332764 0.0763824 0.0103198 0.0965074
1705 5 -0.00242037 0.190956 0.0309593 0.0965074
1706 5 -0.00307887 0.152765 0.0103198 0.0965074
1709 5 -0.00361769 0.267338 0.0309593 0.0965074
1710 5 -0.00583304 0.229147 0.0103198 0.0965074
1714 5 -0.00124973 0.305529 0.0103198 0.0965074
1751 5 -0.00410032 0.0763824 0.0928779 0.0965074
1752 5 -0.00776301 0.0381912 0.0722384 0.0965074
1755 5 -0.00117384 0.152765 0.0928779 0.0965074
1756 5 4.98543e-05 0.114574 0.0722384 0.0965074
1759 5 -0.00560187 0.229147 0.0928779 0.0965074
1760 5 -0.00215562 0.190956 0.0722384 0.0965074
1763 5 -0.00513783 0.305529 0.0928779 0.0965074
1764 5 -0.00484155 0.267338 0.0722384 0.0965074
1802 5 -0.0116231 0.0381912 0.154797 0.0965074
1805 5 -0.00440328 0.114574 0.154797 0.0965074
1806 5 -0.00633713 0.0763824 0.134157 0.0965074
1809 5 -0.00527726 0.190956 0.154797 0.0965074
1810 5 -0.00361841 0.152765 0.134157 0.0965074
1813 5 -0.00628835 0.267338 0.154797 0.0965074
1814 5 -0.00655057 0.229147 0.134157 0.0965074
1818 5 -0.0062299 0.305529 0.134157 0.0965074
1855 5 -0.00359659 0.0763824 0.216715 0.0965074
1856 5 -0.00692738 0.0381912 0.196076 0.0965074
1859 5 -0.00413126 0.152765 0.216715 0.0965074
1860 5 -0.00489342 0.114574 0.196076 0.0965074
1863 5 -0.00241146 0.229147 0.216715 0.0965074
1864 5 -0.00457594 0.190956 0.196076 0.0965074
1867 5 -0.000737986 0.305529 0.216715 0.0965074
1868 5 -0.00296098 0.267338 0.196076 0.0965074
1906 5 0.00152233 0.0381912 0.278634 0.0965074
1909 5 -0.00520064 0.114574 0.278634 0.0965074
1910 5 -0.00198676 0.0763824 0.257994 0.0965074
1913 5 -0.00431654 0.190956 0.278634 0.0965074
1914 5 -0.0050203 0.152765 0.257994 0.0965074
1917 5 0.00147734 0.267338 0.278634 0.0965074
1918 5 -0.000845797 0.229147 0.257994 0.0965074
1922 5 0.00207763 0.305529 0.257994 0.0965074
1960 5 -0.000325948 0.0381912 0.319913 0.0965074
1964 5 -0.0100826 0.114574 0.319913 0.0965074
1968 5 -0.00782893 0.190956 0.319913 0.0965074
1972 5 -0.00109915 0.267338 0.319913 0.0965074
1713 5 0.00210667 0.343721 0.0309593 0.0965074
1717 5 0.00184901 0.420103 0.0309593 0.0965074
1718 5 0.00450002 0.381912 0.0103198 0.0965074
1721 5 -0.00712094 0.496485 0.0309593 0.0965074
1722 5 -0.00190182 0.458294 0.0103198 0.0965074
1725 5 -0.00553077 0.572868 0.0309593 0.0965074
1726 5 -0.00525421 0.534677 0.0103198 0.0965074
1729 5 0.00119194 0.64925 0.0309593 0.0965074
1730 5 0.00498053 0.611059 0.0103198 0.0965074
1767 5 -0.00266808 0.381912 0.0928779 0.0965074
1768 5 -0.00120076 0.343721 0.0722384 0.0965074
1771 5 -0.00968744 0.458294 0.0928779 0.0965074
1772 5 -0.00196301 0.420103 0.0722384 0.0965074
1775 5 -0.0151342 0.534677 0.0928779 0.0965074
1776 5 -0.0120682 0.496485 0.0722384 0.0965074
1779 5 -0.00869483 0.611059 0.0928779 0.0965074
1780 5 -0.0113053 0.572868 0.0722384 0.0965074
1784 5 -0.00527348 0.64925 0.0722384 0.0965074
1817 5 -0.00564011 0.343721 0.154797 0.0965074
1821 5 -0.0069319 0.420103 0.154797 0.0965074
1822 5 -0.00614431 0.381912 0.134157 0.0965074
1825 5 -0.00924172 0.496485 0.154797 0.0965074
1826 5 -0.0111817 0.458294 0.134157 0.0965074
1829 5 -0.00413562 0.572868 0.154797 0.0965074
1830 5 -0.010719 0.534677 0.134157 0.0965074
1833 5 -0.00456701 0.64925 0.154797 0.0965074
1834 5 -0.00663669 0.611059 0.134157 0.0965074
1871 5 -0.00284339 0.381912 0.216715 0.0965074
1872 5 -0.00351565 0.343721 0.196076 0.0965074
1875 5 -0.00151337 0.458294 0.216715 0.0965074
1876 5 -0.00490978 0.420103 0.196076 0.0965074
1879 5 0.00520935 0.534677 0.216715 0.0965074
1880 5 -0.000757373 0.496485 0.196076 0.0965074
1883 5 0.00269554 0.611059 0.216715 0.0965074
1884 5 0.00330956 0.572868 0.196076 0.0965074
1888 5 -0.00220012 0.64925 0.196076 0.0965074
1921 5 0.00064063 0.343721 0.278634 0.0965074
1925 5 -0.00237928 0.420103 0.278634 0.0965074
1926 5 -0.00128057 0.381912 0.257994 0.0965074
1929 5 0.00094536 0.496485 0.278634 0.0965074
1930 5 -0.00039789 0.458294 0.257994 0.0965074
1933 5 0.00229986 0.572868 0.278634 0.0965074
1934 5 0.00546265 0.534677 0.257994 0.0965074
1937 5 -0.00408357 0.64925 0.278634 0.0965074
1938 5 0.00149096 0.611059 0.257994 0.0965074
1976 5 -0.00280534 0.343721 0.319913 0.0965074
1980 5 -0.00493406 0.420103 0.319913 0.0965074
1984 5 -0.0033692 0.496485 0.319913 0.0965074
1988 5 -0.0054229 0.572868 0.319913 0.0965074
1992 5 -0.00978806 0.64925 0.319913 0.0965074
1733 5 -0.0008735 0.725632 0.0309593 0.0965074
1734 5 0.00364198 0.687441 0.0103198 0.0965074
1737 5 -0.000392217 0.802015 0.0309593 0.0965074
1738 5 -0.00256122 0.763824 0.0103198 0.0965074
1741 5 -0.00128632 0.878397 0.0309593 0.0965074
1742 5 -0.00310517 0.840206 0.0103198 0.0965074
1745 5 -0.00670125 0.95478 0.0309593 0.0965074
1746 5 -0.00480142 0.916588 0.0103198 0.0965074
1748 5 -0.00764559 0.992971 0.0103198 0.0965074
1783 5 -0.00426113 0.687441 0.0928779 0.0965074
1787 5 0.00275816 0.763824 0.0928779 0.0965074
1788 5 -0.00128142 0.725632 0.0722384 0.0965074
1791 5 0.00749364 0.840206 0.0928779 0.0965074
1792 5 0.00506907 0.802015 0.0722384 0.0965074
1795 5 -0.00250682 0.916588 0.0928779 0.0965074
1796 5 0.00245406 0.878397 0.0722384 0.0965074
1799 5 -0.0114165 0.992971 0.0928779 0.0965074
1800 5 -0.00791222 0.95478 0.0722384 0.0965074
1837 5 -0.00290264 0.725632 0.154797 0.0965074
1838 5 -0.00490132 0.687441 0.134157 0.0965074
1841 5 0.00319254 0.802015 0.154797 0.0965074
1842 5 0.00191798 0.763824 0.134157 0.0965074
1845 5 0.000738337 0.878397 0.154797 0.0965074
1846 5 0.00643135 0.840206 0.134157 0.0965074
1849 5 -0.00987471 0.95478 0.154797 0.0965074
1850 5 -0.00330421 0.916588 0.134157 0.0965074
1852 5 -0.0136803 0.992971 0.134157 0.0965074
1887 5 -0.00473847 0.687441 0.216715 0.0965074
1891 5 -0.00665026 0.763824 0.216715 0.0965074
1892 5 -0.00515432 0.725632 0.196076 0.0965074
1895 5 -0.0066686 0.840206 0.216715 0.0965074
1896 5 -0.00355519 0.802015 0.196076 0.0965074
1899 5 -0.00590415 0.916588 0.216715 0.0965074
1900 5 -0.00464747 0.878397 0.196076 0.0965074
1903 5 -0.00540772 0.992971 0.216715 0.0965074
1904 5 -0.0070793 0.95478 0.196076 0.0965074
1941 5 -0.00654358 0.725632 0.278634 0.0965074
1942 5 -0.00530637 0.687441 0.257994 0.0965074
1945 5 -0.0084887 0.802015 0.278634 0.0965074
1946 5 -0.00787917 0.763824 0.257994 0.0965074
1949 5 -0.00879978 0.878397 0.278634 0.0965074
1950 5 -0.010478 0.840206 0.257994 0.0965074
1953 5 -0.00028981 0.95478 0.278634 0.0965074
1954 5 -0.00562252 0.916588 0.257994 0.0965074
1956 5 0.00159118 0.992971 0.257994 0.0965074
1996 5 -0.00421941 0.725632 0.319913 0.0965074
2000 5 -0.00491587 0.802015 0.319913 0.0965074
2004 5 -0.00679162 0.878397 0.319913 0.0965074
2008 5 -0.000154375 0.95478 0.319913 0.0965074
1959 5 -0.00807132 0.0763824 0.340552 0.0965074
1963 5 -0.0133685 0.152765 0.340552 0.0965074
1967 5 -0.00641945 0.229147 0.340552 0.0965074
1971 5 -0.00382894 0.305529 0.340552 0.0965074
2010 5 -0.00658471 0.0381912 0.402471 0.0965074
2013 5 -0.0113676 0.114574 0.402471 0.0965074
2014 5 -0.0101005 0.0763824 0.381831 0.0965074
2017 5 -0.00866427 0.190956 0.402471 0.0965074
2018 5 -0.0131646 0.152765 0.381831 0.0965074
2021 5 -0.00674076 0.267338 0.402471 0.0965074
2022 5 -0.0079314 0.229147 0.381831 0.0965074
2026 5 -0.00873361 0.305529 0.381831 0.0965074
2063 5 -0.00422199 0.0763824 0.46439 0.0965074
2064 5 -0.00590753 0.0381912 0.44375 0.0965074
2067 5 -0.000404008 0.152765 0.46439 0.0965074
2068 5 -0.00556049 0.114574 0.44375 0.0965074
2071 5 0.000360503 0.229147 0.46439 0.0965074
2072 5 -0.00202227 0.190956 0.44375 0.0965074
2075 5 -0.00508703 0.305529 0.46439 0.0965074
2076 5 -0.00471528 0.267338 0.44375 0.0965074
2114 5 0.00254809 0.0381912 0.526308 0.0965074
2117 5 0.000312028 0.114574 0.526308 0.0965074
2118 5 -0.00122457 0.0763824 0.505669 0.0965074
2121 5 0.00369208 0.190956 0.526308 0.0965074
2122 5 0.0028069 0.152765 0.505669 0.0965074
2125 5 -0.000270792 0.267338 0.526308 0.0965074
2126 5 0.00272689 0.229147 0.505669 0.0965074
2130 5 -0.0021498 0.305529 0.505669 0.0965074
2167 5 -0.00372114 0.0763824 0.588227 0.0965074
2168 5 0.00351409 0.0381912 0.567587 0.0965074
2171 5 -0.00341827 0.152765 0.588227 0.0965074
2172 5 -0.00255651 0.114574 0.567587 0.0965074
2175 5 -0.00285914 0.229147 0.588227 0.0965074
2176 5 9.39148e-05 0.190956 0.567587 0.0965074
2179 5 -0.0046657 0.305529 0.588227 0.0965074
2180 5 -0.00242639 0.267338 0.567587 0.0965074
2218 5 -0.00672357 0.0381912 0.650145 0.0965074
2221 5 -0.00925833 0.114574 0.650145 0.0965074
2222 5 -0.00764355 0.0763824 0.629506 0.0965074
2225 5 -0.00458872 0.190956 0.650145 0.0965074
2226 5 -0.00635013 0.152765 0.629506 0.0965074
2229 5 -0.00531595 0.267338 0.650145 0.0965074
2230 5 -0.00468778 0.229147 0.629506 0.0965074
2234 5 -0.00605477 0.305529 0.629506 0.0965074
1975 5 -0.00738468 0.381912 0.340552 0.0965074
1979 5 -0.00674738 0.458294 0.340552 0.0965074
1983 5 -0.00627368 0.534677 0.340552 0.0965074
1987 5 -0.0127798 0.611059 0.340552 0.0965074
2025 5 -0.0125418 0.343721 0.402471 0.0965074
2029 5 -0.0098409 0.420103 0.402471 0.0965074
2030 5 -0.0120018 0.381912 0.381831 0.0965074
2033 5 -0.00776114 0.496485 0.402471 0.0965074
2034 5 -0.0084544 0.458294 0.381831 0.0965074
2037 5 -0.0117423 0.572868 0.402471 0.0965074
2038 5 -0.00923021 0.534677 0.381831 0.0965074
2041 5 -0.0138793 0.64925 0.402471 0.0965074
2042 5 -0.0162477 0.611059 0.381831 0.0965074
2079 5 -0.0025667 0.381912 0.46439 0.0965074
2080 5 -0.00931361 0.343721 0.44375 0.0965074
2083 5 0.00155072 0.458294 0.46439 0.0965074
2084 5 -0.00364331 0.420103 0.44375 0.0965074
2087 5 -0.00471629 0.534677 0.46439 0.0965074
2088 5 -0.00422429 0.496485 0.44375 0.0965074
2091 5 -0.0107833 0.611059 0.46439 0.0965074
2092 5 -0.00968054 0.572868 0.44375 0.0965074
2096 5 -0.0110118 0.64925 0.44375 0.0965074
2129 5 0.00103061 0.343721 0.526308 0.0965074
2133 5 0.0127501 0.420103 0.526308 0.0965074
2134 5 0.00558587 0.381912 0.505669 0.0965074
2137 5 0.00414006 0.496485 0.526308 0.0965074
2138 5 0.00928286 0.458294 0.505669 0.0965074
2141 5 -0.00588719 0.572868 0.526308 0.0965074
2142 5 -0.00268488 0.534677 0.505669 0.0965074