ITEM: TIMESTEP
0
ITEM: NUMBER OF ATOMS
832
ITEM: BOX BOUNDS pp pp ff
0.0000000000000000e+00 3.2200000000000003e+01
0.0000000000000000e+00 3.4399999999999999e+01
-6.8000000000000000e+01 6.8000000000000000e+01
ITEM: ATOMS id type q xs ys zs
1698 5 -0.00387935 0.0381912 0.0309593 0.0965074
1701 5 0.0106762 0.114574 0.0309593 0.0965074
1702 5 0.00334554 0.0763824 0.0103198 0.0965074
1705 5 0.00754475 0.190956 0.0309593 0.0965074
1706 5 0.0114121 0.152765 0.0103198 0.0965074
1709 5 -0.00377588 0.267338 0.0309593 0.0965074
1710 5 0.00116352 0.229147 0.0103198 0.0965074
1714 5 -0.00289372 0.305529 0.0103198 0.0965074
1751 5 0.00519271 0.0763824 0.0928779 0.0965074
1752 5 -0.00102686 0.0381912 0.0722384 0.0965074
1755 5 0.0069556 0.152765 0.0928779 0.0965074
1756 5 0.00924281 0.114574 0.0722384 0.0965074
1759 5 -0.00268963 0.229147 0.0928779 0.0965074
1760 5 0.00512737 0.190956 0.0722384 0.0965074
1763 5 -0.00879992 0.305529 0.0928779 0.0965074
1764 5 -0.00621925 0.267338 0.0722384 0.0965074
1802 5 0.00826063 0.0381912 0.154797 0.0965074
1805 5 0.00436816 0.114574 0.154797 0.0965074
1806 5 0.00634739 0.0763824 0.134157 0.0965074
1809 5 -0.00188407 0.190956 0.154797 0.0965074
1810 5 0.00187252 0.152765 0.134157 0.0965074
1813 5 -0.0061065 0.267338 0.154797 0.0965074
1814 5 -0.00401064 0.229147 0.134157 0.0965074
1818 5 -0.00807034 0.305529 0.134157 0.0965074
1855 5 0.00478666 0.0763824 0.216715 0.0965074
1856 5 0.00939555 0.0381912 0.196076 0.0965074
1859 5 -0.00133097 0.152765 0.216715 0.0965074
1860 5 0.00224021 0.114574 0.196076 0.0965074
1863 5 -0.000998866 0.229147 0.216715 0.0965074
1864 5 -0.00221578 0.190956 0.196076 0.0965074
1867 5 -0.00247823 0.305529 0.216715 0.0965074
1868 5 -0.00292543 0.267338 0.196076 0.0965074
1906 5 -0.00149307 0.0381912 0.278634 0.0965074
1909 5 -0.00483101 0.114574 0.278634 0.0965074
1910 5 -0.000626807 0.0763824 0.257994 0.0965074
1913 5 -0.000263903 0.190956 0.278634 0.0965074
1914 5 -0.00294216 0.152765 0.257994 0.0965074
1917 5 0.00418718 0.267338 0.278634 0.0965074
1918 5 0.00227295 0.229147 0.257994 0.0965074
1922 5 0.00136444 0.305529 0.257994 0.0965074
1960 5 -0.00648526 0.0381912 0.319913 0.0965074
1964 5 -0.00709622 0.114574 0.319913 0.0965074
1968 5 -0.000108867 0.190956 0.319913 0.0965074
1972 5 0.00435346 0.267338 0.319913 0.0965074
1713 5 -0.000358413 0.343721 0.0309593 0.0965074
1717 5 0.0113165 0.420103 0.0309593 0.0965074
1718 5 0.00890196 0.381912 0.0103198 0.0965074
1721 5 0.00392517 0.496485 0.0309593 0.0965074
1722 5 0.0131414 0.458294 0.0103198 0.0965074
1725 5 -0.00168848 0.572868 0.0309593 0.0965074
1726 5 0.00310789 0.534677 0.0103198 0.0965074
1729 5 0.00409925 0.64925 0.0309593 0.0965074
1730 5 0.00757615 0.611059 0.0103198 0.0965074
1767 5 -0.00142801 0.381912 0.0928779 0.0965074
1768 5 -0.00427545 0.343721 0.0722384 0.0965074
1771 5 0.0009819 0.458294 0.0928779 0.0965074
1772 5 0.00481787 0.420103 0.0722384 0.0965074
1775 5 -0.0090226 0.534677 0.0928779 0.0965074
1776 5 -0.00141198 0.496485 0.0722384 0.0965074
1779 5 -0.00644952 0.611059 0.0928779 0.0965074
1780 5 -0.00881384 0.572868 0.0722384 0.0965074
1784 5 -0.00195339 0.64925 0.0722384 0.0965074
1817 5 -0.0074236 0.343721 0.154797 0.0965074
1821 5 -0.00287328 0.420103 0.154797 0.0965074
1822 5 -0.00499839 0.381912 0.134157 0.0965074
1825 5 -0.000999568 0.496485 0.154797 0.0965074
1826 5 -0.00215058 0.458294 0.134157 0.0965074
1829 5 0.00047632 0.572868 0.154797 0.0965074
1830 5 -0.00438597 0.534677 0.134157 0.0965074
1833 5 0.000826411 0.64925 0.154797 0.0965074
1834 5 -0.00250435 0.611059 0.134157 0.0965074
1871 5 -0.00368282 0.381912 0.216715 0.0965074
1872 5 -0.00556044 0.343721 0.196076 0.0965074
1875 5 0.000410407 0.458294 0.216715 0.0965074
1876 5 -0.00304501 0.420103 0.196076 0.0965074
1879 5 0.00917346 0.534677 0.216715 0.0965074
1880 5 0.00270438 0.496485 0.196076 0.0965074
1883 5 0.0104651 0.611059 0.216715 0.0965074
1884 5 0.0100375 0.572868 0.196076 0.0965074
1888 5 0.00428416 0.64925 0.196076 0.0965074
1921 5 -1.95769e-05 0.343721 0.278634 0.0965074
1925 5 -0.0017553 0.420103 0.278634 0.0965074
1926 5 -0.00200009 0.381912 0.257994 0.0965074
1929 5 0.00209617 0.496485 0.278634 0.0965074
1930 5 0.000371483 0.458294 0.257994 0.0965074
1933 5 0.00636516 0.572868 0.278634 0.0965074
1934 5 0.00821923 0.534677 0.257994 0.0965074
1937 5 -0.00134798 0.64925 0.278634 0.0965074
1938 5 0.00740363 0.611059 0.257994 0.0965074
1976 5 -0.000873463 0.343721 0.319913 0.0965074
1980 5 -0.00302098 0.420103 0.319913 0.0965074
1984 5 -0.00107955 0.496485 0.319913 0.0965074
1988 5 -0.00159382 0.572868 0.319913 0.0965074
1992 5 -0.00653516 0.64925 0.319913 0.0965074
1733 5 0.00557998 0.725632 0.0309593 0.0965074
1734 5 0.00921964 0.687441 0.0103198 0.0965074
1737 5 0.00864785 0.802015 0.0309593 0.0965074
1738 5 0.0072003 0.763824 0.0103198 0.0965074
1741 5 0.00362598 0.878397 0.0309593 0.0965074
1742 5 0.00582755 0.840206 0.0103198 0.0965074
1745 5 -0.0082815 0.95478 0.0309593 0.0965074
1746 5 -0.00387487 0.916588 0.0103198 0.0965074
1748 5 -0.010159 0.992971 0.0103198 0.0965074
1783 5 -0.000403532 0.687441 0.0928779 0.0965074
1787 5 0.00718745 0.763824 0.0928779 0.0965074
1788 5 0.00372817 0.725632 0.0722384 0.0965074
1791 5 0.011496 0.840206 0.0928779 0.0965074
1792 5 0.0116186 0.802015 0.0722384 0.0965074
1795 5 0.000382908 0.916588 0.0928779 0.0965074
1796 5 0.00637721 0.878397 0.0722384 0.0965074
1799 5 -0.00449329 0.992971 0.0928779 0.0965074
1800 5 -0.00651534 0.95478 0.0722384 0.0965074
1837 5 0.000311582 0.725632 0.154797 0.0965074
1838 5 -0.00069155 0.687441 0.134157 0.0965074
1841 5 0.002321 0.802015 0.154797 0.0965074
1842 5 0.00384997 0.763824 0.134157 0.0965074
1845 5 -0.00070713 0.878397 0.154797 0.0965074
1846 5 0.0054465 0.840206 0.134157 0.0965074
1849 5 0.000666978 0.95478 0.154797 0.0965074
1850 5 4.85329e-06 0.916588 0.134157 0.0965074
1852 5 0.00354728 0.992971 0.134157 0.0965074
1887 5 0.00101351 0.687441 0.216715 0.0965074
1891 5 -0.00323879 0.763824 0.216715 0.0965074
1892 5 -0.000983791 0.725632 0.196076 0.0965074
1895 5 -0.00941538 0.840206 0.216715 0.0965074
1896 5 -0.00386855 0.802015 0.196076 0.0965074
1899 5 -0.00909054 0.916588 0.216715 0.0965074
1900 5 -0.008982 0.878397 0.196076 0.0965074
1903 5 0.00455324 0.992971 0.216715 0.0965074
1904 5 -0.000384399 0.95478 0.196076 0.0965074
1941 5 -0.000799456 0.725632 0.278634 0.0965074
1942 5 -0.000899025 0.687441 0.257994 0.0965074
1945 5 -0.00223594 0.802015 0.278634 0.0965074
1946 5 -0.00176677 0.763824 0.257994 0.0965074
1949 5 -0.0110621 0.878397 0.278634 0.0965074
1950 5 -0.00918035 0.840206 0.257994 0.0965074
1953 5 -0.00718479 0.95478 0.278634 0.0965074
1954 5 -0.0113449 0.916588 0.257994 0.0965074
1956 5 -0.0011279 0.992971 0.257994 0.0965074
1996 5 0.00372479 0.725632 0.319913 0.0965074
2000 5 0.00523401 0.802015 0.319913 0.0965074
2004 5 -0.0061831 0.878397 0.319913 0.0965074
2008 5 -0.00755527 0.95478 0.319913 0.0965074
1959 5 -0.00761025 0.0763824 0.340552 0.0965074
1963 5 -0.00484547 0.152765 0.340552 0.0965074
1967 5 0.00276803 0.229147 0.340552 0.0965074
1971 5 0.000629388 0.305529 0.340552 0.0965074
2010 5 -0.00592626 0.0381912 0.402471 0.0965074
2013 5 -0.00365633 0.114574 0.402471 0.0965074
2014 5 -0.00682775 0.0763824 0.381831 0.0965074
2017 5 0.00210021 0.190956 0.402471 0.0965074
2018 5 -0.00269141 0.152765 0.381831 0.0965074
2021 5 0.000134844 0.267338 0.402471 0.0965074
2022 5 0.0023477 0.229147 0.381831 0.0965074
2026 5 -0.003617 0.305529 0.381831 0.0965074
2063 5 0.00130512 0.0763824 0.46439 0.0965074
2064 5 -0.00107 0.0381912 0.44375 0.0965074
2067 5 0.00756436 0.152765 0.46439 0.0965074
2068 5 0.000852536 0.114574 0.44375 0.0965074
2071 5 0.0108938 0.229147 0.46439 0.0965074
2072 5 0.00805223 0.190956 0.44375 0.0965074
2075 5 -0.00335112 0.305529 0.46439 0.0965074
2076 5 0.00208213 0.267338 0.44375 0.0965074
2114 5 0.00594143 0.0381912 0.526308 0.0965074
2117 5 0.00478732 0.114574 0.526308 0.0965074
2118 5 0.00354284 0.0763824 0.505669 0.0965074
2121 5 0.0129823 0.190956 0.526308 0.0965074
2122 5 0.00986278 0.152765 0.505669 0.0965074
2125 5 0.00640221 0.267338 0.526308 0.0965074
2126 5 0.0137537 0.229147 0.505669 0.0965074
2130 5 -0.000679032 0.305529 0.505669 0.0965074
2167 5 0.000563163 0.0763824 0.588227 0.0965074
2168 5 0.00478788 0.0381912 0.567587 0.0965074
2171 5 0.00180722 0.152765 0.588227 0.0965074
2172 5 0.0022758 0.114574 0.567587 0.0965074
2175 5 0.00289362 0.229147 0.588227 0.0965074
2176 5 0.00643013 0.190956 0.567587 0.0965074
2179 5 -0.00238636 0.305529 0.588227 0.0965074
2180 5 0.0024604 0.267338 0.567587 0.0965074
2218 5 0.000555985 0.0381912 0.650145 0.0965074
2221 5 -0.00159434 0.114574 0.650145 0.0965074
2222 5 -0.000708318 0.0763824 0.629506 0.0965074
2225 5 -0.000171142 0.190956 0.650145 0.0965074
2226 5 -0.00107468 0.152765 0.629506 0.0965074
2229 5 -0.000907323 0.267338 0.650145 0.0965074
2230 5 -0.000288306 0.229147 0.629506 0.0965074
2234 5 -0.00275281 0.305529 0.629506 0.0965074
1975 5 -0.00415193 0.381912 0.340552 0.0965074
1979 5 -0.00364473 0.458294 0.340552 0.0965074
1983 5 -0.00255057 0.534677 0.340552 0.0965074
1987 5 -0.00595577 0.611059 0.340552 0.0965074
2025 5 -0.00932388 0.343721 0.402471 0.0965074
2029 5 -0.00655143 0.420103 0.402471 0.0965074
2030 5 -0.00778001 0.381912 0.381831 0.0965074
2033 5 -0.00339671 0.496485 0.402471 0.0965074
2034 5 -0.00432817 0.458294 0.381831 0.0965074
2037 5 -0.00577548 0.572868 0.402471 0.0965074
2038 5 -0.00443014 0.534677 0.381831 0.0965074
2041 5 -0.00516244 0.64925 0.402471 0.0965074
2042 5 -0.00725022 0.611059 0.381831 0.0965074
2079 5 -0.00591833 0.381912 0.46439 0.0965074
2080 5 -0.0101648 0.343721 0.44375 0.0965074
2083 5 0.00278553 0.458294 0.46439 0.0965074
2084 5 -0.00364774 0.420103 0.44375 0.0965074
2087 5 0.000157848 0.534677 0.46439 0.0965074
2088 5 7.01373e-05 0.496485 0.44375 0.0965074
2091 5 -0.00554175 0.611059 0.46439 0.0965074
2092 5 -0.00453669 0.572868 0.44375 0.0965074
2096 5 -0.00488512 0.64925 0.44375 0.0965074
2129 5 -0.00238502 0.343721 0.526308 0.0965074
2133 5 0.00773224 0.420103 0.526308 0.0965074
2134 5 -0.000674433 0.381912 0.505669 0.0965074
2137 5 0.00960943 0.496485 0.526308 0.0965074
2138 5 0.00951186 0.458294 0.505669 0.0965074
2141 5 0.000128331 0.572868 0.526308 0.0965074
2142 5 0.00336147 0.534677 0.505669 0.0965074
2145 5 -0.00277108 0.64925 0.526308 0.0965074
2146 5 -0.00339365 0.611059 0.505669 0.0965074
2183 5 0.000418294 0.381912 0.588227 0.0965074
2184 5 -0.0010192 0.343721 0.567587 0.0965074
2187 5 0.00527243 0.458294 0.588227 0.0965074
2188 5 0.0066721 0.420103 0.567587 0.0965074
2191 5 4.50929e-05 0.534677 0.588227 0.0965074
2192 5 0.00669534 0.496485 0.567587 0.0965074
2195 5 -0.00154281 0.611059 0.588227 0.0965074
2196 5 -0.000241692 0.572868 0.567587 0.0965074
2200 5 -0.0008578 0.64925 0.567587 0.0965074
2233 5 -0.00254702 0.343721 0.650145 0.0965074
2237 5 -0.00324708 0.420103 0.650145 0.0965074
2238 5 -0.00174378 0.381912 0.629506 0.0965074
2241 5 -0.00830087 0.496485 0.650145 0.0965074
2242 5 -0.00280632 0.458294 0.629506 0.0965074
2245 5 -0.00652795 0.572868 0.650145 0.0965074
2246 5 -0.00627626 0.534677 0.629506 0.0965074
2249 5 0.000543748 0.64925 0.650145 0.0965074
2250 5 -0.00236987 0.611059 0.629506 0.0965074
1991 5 -0.00149034 0.687441 0.340552 0.0965074
1995 5 0.0117631 0.763824 0.340552 0.0965074
1999 5 0.00254085 0.840206 0.340552 0.0965074
2003 5 -0.00664778 0.916588 0.340552 0.0965074
2007 5 -0.0067655 0.992971 0.340552 0.0965074
2045 5 0.00798864 0.725632 0.402471 0.0965074
2046 5 0.0010182 0.687441 0.381831 0.0965074
2049 5 0.00895672 0.802015 0.402471 0.0965074
2050 5 0.0146267 0.763824 0.381831 0.0965074
2053 5 -0.00161121 0.878397 0.402471 0.0965074
2054 5 0.00415302 0.840206 0.381831 0.0965074
2057 5 -0.00382106 0.95478 0.402471 0.0965074
2058 5 -0.00348155 0.916588 0.381831 0.0965074
2060 5 -0.00642923 0.992971 0.381831 0.0965074
2095 5 -0.00256048 0.687441 0.46439 0.0965074
2099 5 -0.000316776 0.763824 0.46439 0.0965074
2100 5 0.00246078 0.725632 0.44375 0.0965074
2103 5 -0.00651192 0.840206 0.46439 0.0965074
2104 5 -1.92048e-05 0.802015 0.44375 0.0965074
2107 5 0.000115832 0.916588 0.46439 0.0965074
2108 5 -0.00367252 0.878397 0.44375 0.0965074
2111 5 0.00256375 0.992971 0.46439 0.0965074
2112 5 0.000476297 0.95478 0.44375 0.0965074
2149 5 -0.00253601 0.725632 0.526308 0.0965074
2150 5 -0.00281068 0.687441 0.505669 0.0965074
2153 5 -0.00779719 0.802015 0.526308 0.0965074
2154 5 -0.00486515 0.763824 0.505669 0.0965074
2157 5 -0.00233804 0.878397 0.526308 0.0965074
2158 5 -0.0083166 0.840206 0.505669 0.0965074
2161 5 0.00947118 0.95478 0.526308 0.0965074
2162 5 0.00367113 0.916588 0.505669 0.0965074
2164 5 0.00840774 0.992971 0.505669 0.0965074
2199 5 0.00187251 0.687441 0.588227 0.0965074
2203 5 0.00159083 0.763824 0.588227 0.0965074
2204 5 0.00030656 0.725632 0.567587 0.0965074
2207 5 -0.00259501 0.840206 0.588227 0.0965074
2208 5 -0.00409846 0.802015 0.567587 0.0965074
2211 5 0.00297365 0.916588 0.588227 0.0965074
2212 5 -0.000995622 0.878397 0.567587 0.0965074
2215 5 0.00593898 0.992971 0.588227 0.0965074
2216 5 0.00778995 0.95478 0.567587 0.0965074
2253 5 0.00978803 0.725632 0.650145 0.0965074
2254 5 0.00455641 0.687441 0.629506 0.0965074
2257 5 0.00622577 0.802015 0.650145 0.0965074
2258 5 0.00842077 0.763824 0.629506 0.0965074
2261 5 -0.00148179 0.878397 0.650145 0.0965074
2262 5 0.000605311 0.840206 0.629506 0.0965074
2265 5 -1.8851e-05 0.95478 0.650145 0.0965074
2266 5 -0.000527937 0.916588 0.629506 0.0965074
2268 5 0.00190057 0.992971 0.629506 0.0965074
2271 5 0.00178532 0.0763824 0.712064 0.0965074
2272 5 0.0021899 0.0381912 0.691424 0.0965074
2275 5 0.000699992 0.152765 0.712064 0.0965074
2276 5 -0.00070212 0.114574 0.691424 0.0965074
2279 5 0.00606089 0.229147 0.712064 0.0965074
2280 5 0.00131303 0.190956 0.691424 0.0965074
2283 5 0.00471261 0.305529 0.712064 0.0965074
2284 5 0.00391925 0.267338 0.691424 0.0965074
2322 5 0.0071964 0.0381912 0.773983 0.0965074
2325 5 -0.00220401 0.114574 0.773983 0.0965074
2326 5 0.00293131 0.0763824 0.753343 0.0965074
2329 5 0.00292953 0.190956 0.773983 0.0965074
2330 5 -0.000484585 0.152765 0.753343 0.0965074
2333 5 0.0113076 0.267338 0.773983 0.0965074
2334 5 0.00959838 0.229147 0.753343 0.0965074
2338 5 0.00831462 0.305529 0.753343 0.0965074
2375 5 -0.00210181 0.0763824 0.835901 0.0965074
2376 5 0.00530759 0.0381912 0.815262 0.0965074
2379 5 -0.00880065 0.152765 0.835901 0.0965074
2380 5 -0.00652904 0.114574 0.815262 0.0965074
2383 5 0.00105641 0.229147 0.835901 0.0965074
2384 5 -0.00154495 0.190956 0.815262 0.0965074
2387 5 0.00282227 0.305529 0.835901 0.0965074
2388 5 0.00661507 0.267338 0.815262 0.0965074
2426 5 -0.00312911 0.0381912 0.89782 0.0965074
2429 5 -0.00708095 0.114574 0.89782 0.0965074
2430 5 -0.0042862 0.0763824 0.87718 0.0965074
2433 5 -0.00633786 0.190956 0.89782 0.0965074
2434 5 -0.00856548 0.152765 0.87718 0.0965074
2437 5 -0.00252424 0.267338 0.89782 0.0965074
2438 5 -0.00369892 0.229147 0.87718 0.0965074
2442 5 -0.000731273 0.305529 0.87718 0.0965074
2479 5 -0.00108116 0.0763824 0.959738 0.0965074
2480 5 -0.00574803 0.0381912 0.939099 0.0965074
2483 5 0.00279855 0.152765 0.959738 0.0965074
2484 5 -0.00188193 0.114574 0.939099 0.0965074
2487 5 -0.00115422 0.229147 0.959738 0.0965074
2488 5 -0.00243043 0.190956 0.939099 0.0965074
2491 5 -0.00124789 0.305529 0.959738 0.0965074
2492 5 -0.00333992 0.267338 0.939099 0.0965074
2287 5 -0.00152845 0.381912 0.712064 0.0965074
2288 5 -0.000296381 0.343721 0.691424 0.0965074
2291 5 -0.00597801 0.458294 0.712064 0.0965074
2292 5 -0.00476617 0.420103 0.691424 0.0965074
2295 5 -0.00674904 0.534677 0.712064 0.0965074
2296 5 -0.00937073 0.496485 0.691424 0.0965074
2299 5 -0.00500239 0.611059 0.712064 0.0965074
2300 5 -0.00618047 0.572868 0.691424 0.0965074
2304 5 -0.00271815 0.64925 0.691424 0.0965074
2337 5 0.00301609 0.343721 0.773983 0.0965074
2341 5 -0.00358572 0.420103 0.773983 0.0965074
2342 5 -0.00115913 0.381912 0.753343 0.0965074
2345 5 -0.00203101 0.496485 0.773983 0.0965074
2346 5 -0.00414081 0.458294 0.753343 0.0965074
2349 5 0.00028701 0.572868 0.773983 0.0965074
2350 5 -0.00147546 0.534677 0.753343 0.0965074
2353 5 -0.00797039 0.64925 0.773983 0.0965074
2354 5 -0.00396943 0.611059 0.753343 0.0965074
2391 5 -0.00284588 0.381912 0.835901 0.0965074
2392 5 0.00153642 0.343721 0.815262 0.0965074
2395 5 -0.00514124 0.458294 0.835901 0.0965074
2396 5 -0.00437194 0.420103 0.815262 0.0965074
2399 5 -0.000691698 0.534677 0.835901 0.0965074
2400 5 -0.00246756 0.496485 0.815262 0.0965074
2403 5 0.0011096 0.611059 0.835901 0.0965074
2404 5 0.00154979 0.572868 0.815262 0.0965074
2408 5 -0.00436446 0.64925 0.815262 0.0965074
2441 5 -0.00049834 0.343721 0.89782 0.0965074
2445 5 -0.00178057 0.420103 0.89782 0.0965074
2446 5 -0.00154785 0.381912 0.87718 0.0965074
2449 5 -0.004371 0.496485 0.89782 0.0965074
2450 5 -0.0049038 0.458294 0.87718 0.0965074
2453 5 0.00398315 0.572868 0.89782 0.0965074
2454 5 -0.00242769 0.534677 0.87718 0.0965074
2457 5 0.00841675 0.64925 0.89782 0.0965074
2458 5 0.00525416 0.611059 0.87718 0.0965074
2495 5 0.00672095 0.381912 0.959738 0.0965074
2496 5 0.000505291 0.343721 0.939099 0.0965074
2499 5 0.00797827 0.458294 0.959738 0.0965074
2500 5 0.00431618 0.420103 0.939099 0.0965074
2503 5 0.00459704 0.534677 0.959738 0.0965074
2504 5 0.00051356 0.496485 0.939099 0.0965074
2507 5 0.0143714 0.611059 0.959738 0.0965074
2508 5 0.00668267 0.572868 0.939099 0.0965074
2512 5 0.0141739 0.64925 0.939099 0.0965074
2303 5 -0.00191379 0.687441 0.712064 0.0965074
2307 5 0.00514546 0.763824 0.712064 0.0965074
2308 5 0.00705454 0.725632 0.691424 0.0965074
2311 5 -0.0009 0.840206 0.712064 0.0965074
2312 5 0.00542927 0.802015 0.691424 0.0965074
2315 5 -0.00230115 0.916588 0.712064 0.0965074
2316 5 -0.00240953 0.878397 0.691424 0.0965074
2319 5 0.00281795 0.992971 0.712064 0.0965074
2320 5 -0.000576289 0.95478 0.691424 0.0965074
2357 5 -0.00788076 0.725632 0.773983 0.0965074
2358 5 -0.0085832 0.687441 0.753343 0.0965074
2361 5 -0.0038562 0.802015 0.773983 0.0965074
2362 5 -0.00246003 0.763824 0.753343 0.0965074
2365 5 -0.00376781 0.878397 0.773983 0.0965074
2366 5 -0.00327655 0.840206 0.753343 0.0965074
2369 5 0.00312418 0.95478 0.773983 0.0965074
2370 5 -0.00150204 0.916588 0.753343 0.0965074
2372 5 0.00640087 0.992971 0.753343 0.0965074
2407 5 -0.00569593 0.687441 0.835901 0.0965074
2411 5 -0.00516715 0.763824 0.835901 0.0965074
2412 5 -0.00879644 0.725632 0.815262 0.0965074
2415 5 -0.00364932 0.840206 0.835901 0.0965074
2416 5 -0.00497993 0.802015 0.815262 0.0965074
2419 5 -0.00086329 0.916588 0.835901 0.0965074
2420 5 -0.00304339 0.878397 0.815262 0.0965074
2423 5 0.00459684 0.992971 0.835901 0.0965074
2424 5 0.00297497 0.95478 0.815262 0.0965074
2461 5 0.0023031 0.725632 0.89782 0.0965074
2462 5 0.00210733 0.687441 0.87718 0.0965074
2465 5 -0.00110742 0.802015 0.89782 0.0965074
2466 5 -0.00191524 0.763824 0.87718 0.0965074
2469 5 -0.00227074 0.878397 0.89782 0.0965074
2470 5 -0.00243359 0.840206 0.87718 0.0965074
2473 5 -0.00252012 0.95478 0.89782 0.0965074
2474 5 -0.00166622 0.916588 0.87718 0.0965074
2476 5 -0.00107713 0.992971 0.87718 0.0965074
2511 5 0.0129066 0.687441 0.959738 0.0965074
2515 5 0.00495228 0.763824 0.959738 0.0965074
2516 5 0.00626177 0.725632 0.939099 0.0965074
2519 5 0.00114947 0.840206 0.959738 0.0965074
2520 5 0.00116913 0.802015 0.939099 0.0965074
2523 5 -0.00396446 0.916588 0.959738 0.0965074
2524 5 -0.00160269 0.878397 0.939099 0.0965074
2527 5 -0.00805149 0.992971 0.959738 0.0965074
2528 5 -0.00521981 0.95478 0.939099 0.0965074
2529 5 -0.00037107 0.0381912 0.0309593 0.903493
2530 5 0.000467034 0.114574 0.0309593 0.903493
2531 5 -7.31041e-05 0.0763824 0.0103198 0.903493
2532 5 0.00742639 0.190956 0.0309593 0.903493
2533 5 0.00151601 0.152765 0.0103198 0.903493
2534 5 0.00723869 0.267338 0.0309593 0.903493
2535 5 0.00733699 0.229147 0.0103198 0.903493
2537 5 0.00015515 0.305529 0.0103198 0.903493
2555 5 -0.0034344 0.0763824 0.0928779 0.903493
2556 5 0.000199264 0.0381912 0.0722384 0.903493
2557 5 -0.00142002 0.152765 0.0928779 0.903493
2558 5 -0.00206483 0.114574 0.0722384 0.903493
2559 5 0.00501406 0.229147 0.0928779 0.903493
2560 5 0.00657536 0.190956 0.0722384 0.903493
2561 5 -0.00224241 0.305529 0.0928779 0.903493
2562 5 0.00557691 0.267338 0.0722384 0.903493
2581 5 -0.000286507 0.0381912 0.154797 0.903493
2582 5 -0.0128481 0.114574 0.154797 0.903493
2583 5 -0.00704043 0.0763824 0.134157 0.903493
2584 5 -0.00693261 0.190956 0.154797 0.903493
2585 5 -0.00815159 0.152765 0.134157 0.903493
2586 5 -0.00973003 0.267338 0.154797 0.903493
2587 5 -0.0031084 0.229147 0.134157 0.903493
2589 5 -0.00908305 0.305529 0.134157 0.903493
2607 5 -0.0073167 0.0763824 0.216715 0.903493
2608 5 -0.00271173 0.0381912 0.196076 0.903493
2609 5 -0.00714255 0.152765 0.216715 0.903493
2610 5 -0.0111965 0.114574 0.196076 0.903493
2611 5 -0.00495548 0.229147 0.216715 0.903493
2612 5 -0.00739602 0.190956 0.196076 0.903493
2613 5 -0.0101817 0.305529 0.216715 0.903493
2614 5 -0.0108107 0.267338 0.196076 0.903493
2633 5 -0.000915253 0.0381912 0.278634 0.903493
2634 5 -0.000961941 0.114574 0.278634 0.903493
2635 5 -0.00391995 0.0763824 0.257994 0.903493
2636 5 0.00556295 0.190956 0.278634 0.903493
2637 5 -0.00130147 0.152765 0.257994 0.903493
2638 5 0.0065696 0.267338 0.278634 0.903493
2639 5 0.00319568 0.229147 0.257994 0.903493
2641 5 -0.00147897 0.305529 0.257994 0.903493
2660 5 0.00538266 0.0381912 0.319913 0.903493
2662 5 0.00229864 0.114574 0.319913 0.903493
2664 5 0.00947449 0.190956 0.319913 0.903493
2666 5 0.0120242 0.267338 0.319913 0.903493
2536 5 -0.00473371 0.343721 0.0309593 0.903493
2538 5 -0.00733679 0.420103 0.0309593 0.903493
2539 5 -0.00904448 0.381912 0.0103198 0.903493
2540 5 -0.000689599 0.496485 0.0309593 0.903493
2541 5 -0.00598629 0.458294 0.0103198 0.903493
2542 5 -0.0019078 0.572868 0.0309593 0.903493
2543 5 -0.00278112 0.534677 0.0103198 0.903493
2544 5 -0.000871942 0.64925 0.0309593 0.903493
2545 5 -0.00461228 0.611059 0.0103198 0.903493
2563 5 -0.00569744 0.381912 0.0928779 0.903493
2564 5 -0.00533283 0.343721 0.0722384 0.903493
2565 5 0.00604731 0.458294 0.0928779 0.903493
2566 5 -0.0038303 0.420103 0.0722384 0.903493
2567 5 0.00936197 0.534677 0.0928779 0.903493
2568 5 0.00675028 0.496485 0.0722384 0.903493
2569 5 0.000418542 0.611059 0.0928779 0.903493
2570 5 0.00199854 0.572868 0.0722384 0.903493
2572 5 0.000194852 0.64925 0.0722384 0.903493
2588 5 -0.0105327 0.343721 0.154797 0.903493
2590 5 0.00118867 0.420103 0.154797 0.903493
2591 5 -0.00432651 0.381912 0.134157 0.903493
2592 5 0.012643 0.496485 0.154797 0.903493
2593 5 0.00957857 0.458294 0.134157 0.903493
2594 5 0.00490421 0.572868 0.154797 0.903493
2595 5 0.0120553 0.534677 0.134157 0.903493
2596 5 -0.00199645 0.64925 0.154797 0.903493
2597 5 0.00101392 0.611059 0.134157 0.903493
2615 5 -0.00588151 0.381912 0.216715 0.903493
2616 5 -0.0108898 0.343721 0.196076 0.903493
2617 5 0.00196101 0.458294 0.216715 0.903493
2618 5 -0.000815089 0.420103 0.196076 0.903493
2619 5 0.00291019 0.534677 0.216715 0.903493
2620 5 0.00633294 0.496485 0.196076 0.903493
2621 5 -0.000976219 0.611059 0.216715 0.903493
2622 5 0.00189483 0.572868 0.196076 0.903493
2624 5 -0.00160778 0.64925 0.196076 0.903493
2640 5 -0.000520724 0.343721 0.278634 0.903493
2642 5 0.000348011 0.420103 0.278634 0.903493
2643 5 -0.0036452 0.381912 0.257994 0.903493
2644 5 0.00321554 0.496485 0.278634 0.903493
2645 5 0.0011319 0.458294 0.257994 0.903493
2646 5 0.000388211 0.572868 0.278634 0.903493
2647 5 0.00100269 0.534677 0.257994 0.903493
2648 5 0.0042749 0.64925 0.278634 0.903493
2649 5 -0.000208104 0.611059 0.257994 0.903493
2668 5 0.00222497 0.343721 0.319913 0.903493
2670 5 0.00445409 0.420103 0.319913 0.903493
2672 5 0.00834354 0.496485 0.319913 0.903493
2674 5 0.00159735 0.572868 0.319913 0.903493
2676 5 0.00408274 0.64925 0.319913 0.903493
2546 5 0.0121406 0.725632 0.0309593 0.903493
2547 5 0.00332974 0.687441 0.0103198 0.903493
2548 5 0.00924186 0.802015 0.0309593 0.903493
2549 5 0.0118349 0.763824 0.0103198 0.903493
2550 5 -0.00778745 0.878397 0.0309593 0.903493
2551 5 -0.00351001 0.840206 0.0103198 0.903493
2552 5 -0.00510328 0.95478 0.0309593 0.903493
2553 5 -0.012572 0.916588 0.0103198 0.903493
2554 5 -0.00257523 0.992971 0.0103198 0.903493
2571 5 0.00354838 0.687441 0.0928779 0.903493
2573 5 0.0102048 0.763824 0.0928779 0.903493
2574 5 0.0115167 0.725632 0.0722384 0.903493
2575 5 0.0025619 0.840206 0.0928779 0.903493
2576 5 0.00914807 0.802015 0.0722384 0.903493
2577 5 0.00428401 0.916588 0.0928779 0.903493
2578 5 -0.000589836 0.878397 0.0722384 0.903493
2579 5 0.00590034 0.992971 0.0928779 0.903493
2580 5 0.00289829 0.95478 0.0722384 0.903493
2598 5 -0.000661621 0.725632 0.154797 0.903493
2599 5 0.000144514 0.687441 0.134157 0.903493
2600 5 -0.00432648 0.802015 0.154797 0.903493
2601 5 0.0011796 0.763824 0.134157 0.903493
2602 5 0.000424494 0.878397 0.154797 0.903493
2603 5 -0.0014249 0.840206 0.134157 0.903493
2604 5 0.0106616 0.95478 0.154797 0.903493
2605 5 0.00843091 0.916588 0.134157 0.903493
2606 5 0.00917237 0.992971 0.134157 0.903493
2623 5 0.000974476 0.687441 0.216715 0.903493
2625 5 -0.000888984 0.763824 0.216715 0.903493
2626 5 -0.000682625 0.725632 0.196076 0.903493
2627 5 -0.00568722 0.840206 0.216715 0.903493
2628 5 -0.00621197 0.802015 0.196076 0.903493
2629 5 0.000763123 0.916588 0.216715 0.903493
2630 5 -0.00240653 0.878397 0.196076 0.903493
2631 5 0.00153223 0.992971 0.216715 0.903493
2632 5 0.0053386 0.95478 0.196076 0.903493
2650 5 0.0107368 0.725632 0.278634 0.903493
2651 5 0.00646453 0.687441 0.257994 0.903493
2652 5 0.00259519 0.802015 0.278634 0.903493
2653 5 0.00499672 0.763824 0.257994 0.903493
2654 5 -0.00205541 0.878397 0.278634 0.903493
2655 5 -0.00263086 0.840206 0.257994 0.903493
2656 5 0.00101246 0.95478 0.278634 0.903493
2657 5 -0.00143186 0.916588 0.257994 0.903493
2658 5 -7.55441e-05 0.992971 0.257994 0.903493
2678 5 0.0113171 0.725632 0.319913 0.903493
2680 5 0.00384403 0.802015 0.319913 0.903493
2682 5 -0.000443888 0.878397 0.319913 0.903493
2684 5 0.00431789 0.95478 0.319913 0.903493
2659 5 0.00461984 0.0763824 0.340552 0.903493
2661 5 0.00496694 0.152765 0.340552 0.903493
2663 5 0.0126141 0.229147 0.340552 0.903493
2665 5 0.00603309 0.305529 0.340552 0.903493
2685 5 0.0101519 0.0381912 0.402471 0.903493
2686 5 0.000893114 0.114574 0.402471 0.903493
2687 5 0.00558949 0.0763824 0.381831 0.903493
2688 5 0.00209467 0.190956 0.402471 0.903493
2689 5 0.00264338 0.152765 0.381831 0.903493
2690 5 0.00248829 0.267338 0.402471 0.903493
2691 5 0.00689282 0.229147 0.381831 0.903493
2693 5 0.00170208 0.305529 0.381831 0.903493
2711 5 -0.00525833 0.0763824 0.46439 0.903493
2712 5 0.00260931 0.0381912 0.44375 0.903493
2713 5 -0.0047555 0.152765 0.46439 0.903493
2714 5 -0.00360934 0.114574 0.44375 0.903493
2715 5 0.00130859 0.229147 0.46439 0.903493
2716 5 -0.00127998 0.190956 0.44375 0.903493
2717 5 -0.00107947 0.305529 0.46439 0.903493
2718 5 0.00047058 0.267338 0.44375 0.903493
2737 5 -0.0078067 0.0381912 0.526308 0.903493
2738 5 -0.00990994 0.114574 0.526308 0.903493
2739 5 -0.0110597 0.0763824 0.505669 0.903493
2740 5 0.00139821 0.190956 0.526308 0.903493
2741 5 -0.00552905 0.152765 0.505669 0.903493
2742 5 0.0104829 0.267338 0.526308 0.903493
2743 5 0.00513688 0.229147 0.505669 0.903493
2745 5 0.00484789 0.305529 0.505669 0.903493
2763 5 -0.0053596 0.0763824 0.588227 0.903493
2764 5 -0.00269862 0.0381912 0.567587 0.903493
2765 5 -0.00599075 0.152765 0.588227 0.903493
2766 5 -0.00834594 0.114574 0.567587 0.903493
2767 5 0.00468969 0.229147 0.588227 0.903493
2768 5 0.000702262 0.190956 0.567587 0.903493
2769 5 0.00658519 0.305529 0.588227 0.903493
2770 5 0.0112699 0.267338 0.567587 0.903493
2789 5 0.00362423 0.0381912 0.650145 0.903493
2790 5 -0.00791611 0.114574 0.650145 0.903493
2791 5 -0.00306709 0.0763824 0.629506 0.903493
2792 5 -0.00773753 0.190956 0.650145 0.903493
2793 5 -0.00852692 0.152765 0.629506 0.903493
2794 5 -0.00283776 0.267338 0.650145 0.903493
2795 5 -0.00245336 0.229147 0.629506 0.903493
2797 5 -0.000681685 0.305529 0.629506 0.903493
2667 5 0.00241669 0.381912 0.340552 0.903493
2669 5 0.010802 0.458294 0.340552 0.903493
2671 5 0.00698344 0.534677 0.340552 0.903493
2673 5 0.000259507 0.611059 0.340552 0.903493
2692 5 -0.00369811 0.343721 0.402471 0.903493
2694 5 0.00452587 0.420103 0.402471 0.903493
2695 5 0.000608876 0.381912 0.381831 0.903493
2696 5 0.0113771 0.496485 0.402471 0.903493
2697 5 0.0128159 0.458294 0.381831 0.903493
2698 5 -0.000927829 0.572868 0.402471 0.903493
2699 5 0.00779542 0.534677 0.381831 0.903493
2700 5 -0.00440307 0.64925 0.402471 0.903493
2701 5 -0.00311671 0.611059 0.381831 0.903493
2719 5 -0.00444486 0.381912 0.46439 0.903493
2720 5 -0.00498562 0.343721 0.44375 0.903493
2721 5 0.00131597 0.458294 0.46439 0.903493
2722 5 -0.000112518 0.420103 0.44375 0.903493
2723 5 -0.000160529 0.534677 0.46439 0.903493
2724 5 0.00476885 0.496485 0.44375 0.903493
2725 5 -0.00557371 0.611059 0.46439 0.903493
2726 5 -0.00307723 0.572868 0.44375 0.903493
2728 5 -0.00493904 0.64925 0.44375 0.903493
2744 5 0.00249813 0.343721 0.526308 0.903493
2746 5 -0.00233979 0.420103 0.526308 0.903493
2747 5 -0.00299647 0.381912 0.505669 0.903493
2748 5 -0.000189991 0.496485 0.526308 0.903493
2749 5 -0.00167504 0.458294 0.505669 0.903493
2750 5 -0.00305661 0.572868 0.526308 0.903493
2751 5 -0.00173258 0.534677 0.505669 0.903493
2752 5 -0.000368532 0.64925 0.526308 0.903493
2753 5 -0.00392486 0.611059 0.505669 0.903493
2771 5 0.000368652 0.381912 0.588227 0.903493
2772 5 0.00377832 0.343721 0.567587 0.903493
2773 5 0.00379488 0.458294 0.588227 0.903493
2774 5 0.000222314 0.420103 0.567587 0.903493
2775 5 0.00324954 0.534677 0.588227 0.903493
2776 5 0.00285759 0.496485 0.567587 0.903493
2777 5 -0.00204555 0.611059 0.588227 0.903493
2778 5 -0.000934986 0.572868 0.567587 0.903493
2780 5 -0.000722184 0.64925 0.567587 0.903493